 Entering Gaussian System, Link 0=g09
 Input=opt_freq-conf-301.com
 Output=opt_freq-conf-301.log
 Initial command:
 /aerosol/software/g09/l1.exe "/scratch/nicole/10658/Gau-82945.inp" -scrdir="/scratch/nicole/10658/"
 Entering Link 1 = /aerosol/software/g09/l1.exe PID=     82948.
  
 Copyright (c) 1988,1990,1992,1993,1995,1998,2003,2009,2013,
            Gaussian, Inc.  All Rights Reserved.
  
 This is part of the Gaussian(R) 09 program.  It is based on
 the Gaussian(R) 03 system (copyright 2003, Gaussian, Inc.),
 the Gaussian(R) 98 system (copyright 1998, Gaussian, Inc.),
 the Gaussian(R) 94 system (copyright 1995, Gaussian, Inc.),
 the Gaussian 92(TM) system (copyright 1992, Gaussian, Inc.),
 the Gaussian 90(TM) system (copyright 1990, Gaussian, Inc.),
 the Gaussian 88(TM) system (copyright 1988, Gaussian, Inc.),
 the Gaussian 86(TM) system (copyright 1986, Carnegie Mellon
 University), and the Gaussian 82(TM) system (copyright 1983,
 Carnegie Mellon University). Gaussian is a federally registered
 trademark of Gaussian, Inc.
  
 This software contains proprietary and confidential information,
 including trade secrets, belonging to Gaussian, Inc.
  
 This software is provided under written license and may be
 used, copied, transmitted, or stored only in accord with that
 written license.
  
 The following legend is applicable only to US Government
 contracts under FAR:
  
                    RESTRICTED RIGHTS LEGEND
  
 Use, reproduction and disclosure by the US Government is
 subject to restrictions as set forth in subparagraphs (a)
 and (c) of the Commercial Computer Software - Restricted
 Rights clause in FAR 52.227-19.
  
 Gaussian, Inc.
 340 Quinnipiac St., Bldg. 40, Wallingford CT 06492
  
  
 ---------------------------------------------------------------
 Warning -- This program may not be used in any manner that
 competes with the business of Gaussian, Inc. or will provide
 assistance to any competitor of Gaussian, Inc.  The licensee
 of this program is prohibited from giving any competitor of
 Gaussian, Inc. access to this program.  By using this program,
 the user acknowledges that Gaussian, Inc. is engaged in the
 business of creating and licensing software in the field of
 computational chemistry and represents and warrants to the
 licensee that it is not a competitor of Gaussian, Inc. and that
 it will not use this program in any manner prohibited above.
 ---------------------------------------------------------------
  

 Cite this work as:
 Gaussian 09, Revision D.01,
 M. J. Frisch, G. W. Trucks, H. B. Schlegel, G. E. Scuseria, 
 M. A. Robb, J. R. Cheeseman, G. Scalmani, V. Barone, B. Mennucci, 
 G. A. Petersson, H. Nakatsuji, M. Caricato, X. Li, H. P. Hratchian, 
 A. F. Izmaylov, J. Bloino, G. Zheng, J. L. Sonnenberg, M. Hada, 
 M. Ehara, K. Toyota, R. Fukuda, J. Hasegawa, M. Ishida, T. Nakajima, 
 Y. Honda, O. Kitao, H. Nakai, T. Vreven, J. A. Montgomery, Jr., 
 J. E. Peralta, F. Ogliaro, M. Bearpark, J. J. Heyd, E. Brothers, 
 K. N. Kudin, V. N. Staroverov, T. Keith, R. Kobayashi, J. Normand, 
 K. Raghavachari, A. Rendell, J. C. Burant, S. S. Iyengar, J. Tomasi, 
 M. Cossi, N. Rega, J. M. Millam, M. Klene, J. E. Knox, J. B. Cross, 
 V. Bakken, C. Adamo, J. Jaramillo, R. Gomperts, R. E. Stratmann, 
 O. Yazyev, A. J. Austin, R. Cammi, C. Pomelli, J. W. Ochterski, 
 R. L. Martin, K. Morokuma, V. G. Zakrzewski, G. A. Voth, 
 P. Salvador, J. J. Dannenberg, S. Dapprich, A. D. Daniels, 
 O. Farkas, J. B. Foresman, J. V. Ortiz, J. Cioslowski, 
 and D. J. Fox, Gaussian, Inc., Wallingford CT, 2013.
 
 ******************************************
 Gaussian 09:  ES64L-G09RevD.01 24-Apr-2013
                28-Jul-2021 
 ******************************************
 %mem=2gb
 %nproc=4
 Will use up to    4 processors via shared memory.
 %chk=conf-301.chk
 ----------------------------------------------------------------------
 # B3LYP/6-31G(d) opt=calcfc freq=noraman nosymm integral(ultrafinegrid
 )
 ----------------------------------------------------------------------
 1/10=4,14=-1,18=20,19=15,26=4,38=1/1,3;
 2/9=110,12=2,15=1,17=6,18=5,40=1/2;
 3/5=1,6=6,7=1,11=2,16=1,25=1,30=1,71=2,74=-5,75=-5,140=1/1,2,3;
 4//1;
 5/5=2,38=5/2;
 8/6=4,10=90,11=11/1;
 11/6=1,8=1,9=11,15=111,16=1,31=1/1,2,10;
 10/6=1,13=1,31=1/2;
 6/7=2,8=2,9=2,10=2,28=1/1;
 7/10=1,18=20,25=1,30=1/1,2,3,16;
 1/10=4,14=-1,18=20,19=15,26=4/3(2);
 2/9=110,15=1/2;
 99//99;
 2/9=110,15=1/2;
 3/5=1,6=6,7=1,11=2,16=1,25=1,30=1,71=1,74=-5,75=-5/1,2,3;
 4/5=5,16=3,69=1/1;
 5/5=2,38=5/2;
 7/30=1/1,2,3,16;
 1/14=-1,18=20,19=15,26=4/3(-5);
 2/9=110,15=1/2;
 6/7=2,8=2,9=2,10=2,19=2,28=1/1;
 99/9=1/99;
 ------------------------------------------------------------
 Candidate Structure: Conf:301 OPT and FREQ calc in gas phase
 ------------------------------------------------------------
 Symbolic Z-matrix:
 Charge =  1 Multiplicity = 1
 O                    -0.13881  -0.14864  -1.76768 
 C                     0.37704   0.73199  -1.08592 
 N                    -0.36807   1.54339  -0.28954 
 C                    -1.69978   1.15699   0.11336 
 C                    -2.48703   2.41612   0.39823 
 O                    -3.81375   2.17874   0.4095 
 O                    -2.00478   3.49354   0.62806 
 C                    -1.71407   0.28347   1.39749 
 C                    -0.86229  -0.9459    1.29263 
 C                     0.37799  -1.24597   1.78407 
 N                     0.81292  -2.47088   1.32067 
 C                    -0.17136  -2.92931   0.59162 
 N                    -1.20497  -2.04884   0.5375 
 C                     1.87632   0.99424  -1.03538 
 C                     2.70492   0.02335  -1.85939 
 N                     2.44095  -1.38529  -1.47797 
 H                     0.06396   2.28836   0.23028 
 H                    -2.15378   0.60536  -0.70847 
 H                    -4.23228   3.02183   0.6253 
 H                    -1.3464    0.87479   2.23745 
 H                    -2.74758   0.01572   1.61236 
 H                     0.99944  -0.61957   2.41458 
 H                    -0.1819   -3.87674   0.07388 
 H                    -2.04603  -2.15826  -0.00986 
 H                     2.19196   0.9501    0.01525 
 H                     2.05996   2.0183   -1.37188 
 H                     2.46431   0.1559   -2.91485 
 H                     3.76406   0.2522   -1.73145 
 H                     3.06624  -2.03948  -1.94956 
 H                     1.47923  -1.59914  -1.75807 
 H                     2.49377  -1.5368   -0.46652 
 

 GradGradGradGradGradGradGradGradGradGradGradGradGradGradGradGradGradGrad
 Berny optimization.
 Initialization pass.
                           ----------------------------
                           !    Initial Parameters    !
                           ! (Angstroms and Degrees)  !
 --------------------------                            --------------------------
 ! Name  Definition              Value          Derivative Info.                !
 --------------------------------------------------------------------------------
 ! R1    R(1,2)                  1.2274         calculate D2E/DX2 analytically  !
 ! R2    R(2,3)                  1.3593         calculate D2E/DX2 analytically  !
 ! R3    R(2,14)                 1.5229         calculate D2E/DX2 analytically  !
 ! R4    R(3,4)                  1.444          calculate D2E/DX2 analytically  !
 ! R5    R(3,17)                 1.0059         calculate D2E/DX2 analytically  !
 ! R6    R(4,5)                  1.5121         calculate D2E/DX2 analytically  !
 ! R7    R(4,8)                  1.5531         calculate D2E/DX2 analytically  !
 ! R8    R(4,18)                 1.089          calculate D2E/DX2 analytically  !
 ! R9    R(5,6)                  1.3478         calculate D2E/DX2 analytically  !
 ! R10   R(5,7)                  1.2026         calculate D2E/DX2 analytically  !
 ! R11   R(6,19)                 0.9657         calculate D2E/DX2 analytically  !
 ! R12   R(8,9)                  1.4993         calculate D2E/DX2 analytically  !
 ! R13   R(8,20)                 1.091          calculate D2E/DX2 analytically  !
 ! R14   R(8,21)                 1.089          calculate D2E/DX2 analytically  !
 ! R15   R(9,10)                 1.3674         calculate D2E/DX2 analytically  !
 ! R16   R(9,13)                 1.3799         calculate D2E/DX2 analytically  !
 ! R17   R(10,11)                1.38           calculate D2E/DX2 analytically  !
 ! R18   R(10,22)                1.0845         calculate D2E/DX2 analytically  !
 ! R19   R(11,12)                1.3079         calculate D2E/DX2 analytically  !
 ! R20   R(12,13)                1.3589         calculate D2E/DX2 analytically  !
 ! R21   R(12,23)                1.0797         calculate D2E/DX2 analytically  !
 ! R22   R(13,24)                1.0094         calculate D2E/DX2 analytically  !
 ! R23   R(14,15)                1.5193         calculate D2E/DX2 analytically  !
 ! R24   R(14,25)                1.0979         calculate D2E/DX2 analytically  !
 ! R25   R(14,26)                1.0935         calculate D2E/DX2 analytically  !
 ! R26   R(15,16)                1.483          calculate D2E/DX2 analytically  !
 ! R27   R(15,27)                1.0906         calculate D2E/DX2 analytically  !
 ! R28   R(15,28)                1.0911         calculate D2E/DX2 analytically  !
 ! R29   R(16,29)                1.0205         calculate D2E/DX2 analytically  !
 ! R30   R(16,30)                1.0243         calculate D2E/DX2 analytically  !
 ! R31   R(16,31)                1.0241         calculate D2E/DX2 analytically  !
 ! A1    A(1,2,3)              121.5556         calculate D2E/DX2 analytically  !
 ! A2    A(1,2,14)             123.764          calculate D2E/DX2 analytically  !
 ! A3    A(3,2,14)             114.6718         calculate D2E/DX2 analytically  !
 ! A4    A(2,3,4)              120.6148         calculate D2E/DX2 analytically  !
 ! A5    A(2,3,17)             120.6239         calculate D2E/DX2 analytically  !
 ! A6    A(4,3,17)             116.7494         calculate D2E/DX2 analytically  !
 ! A7    A(3,4,5)              108.0534         calculate D2E/DX2 analytically  !
 ! A8    A(3,4,8)              112.9349         calculate D2E/DX2 analytically  !
 ! A9    A(3,4,18)             108.0278         calculate D2E/DX2 analytically  !
 ! A10   A(5,4,8)              107.9259         calculate D2E/DX2 analytically  !
 ! A11   A(5,4,18)             110.3004         calculate D2E/DX2 analytically  !
 ! A12   A(8,4,18)             109.5873         calculate D2E/DX2 analytically  !
 ! A13   A(4,5,6)              111.5559         calculate D2E/DX2 analytically  !
 ! A14   A(4,5,7)              124.9785         calculate D2E/DX2 analytically  !
 ! A15   A(6,5,7)              123.4302         calculate D2E/DX2 analytically  !
 ! A16   A(5,6,19)             105.9456         calculate D2E/DX2 analytically  !
 ! A17   A(4,8,9)              113.4602         calculate D2E/DX2 analytically  !
 ! A18   A(4,8,20)             109.1842         calculate D2E/DX2 analytically  !
 ! A19   A(4,8,21)             108.0677         calculate D2E/DX2 analytically  !
 ! A20   A(9,8,20)             107.8662         calculate D2E/DX2 analytically  !
 ! A21   A(9,8,21)             110.5699         calculate D2E/DX2 analytically  !
 ! A22   A(20,8,21)            107.5279         calculate D2E/DX2 analytically  !
 ! A23   A(8,9,10)             132.0744         calculate D2E/DX2 analytically  !
 ! A24   A(8,9,13)             123.5444         calculate D2E/DX2 analytically  !
 ! A25   A(10,9,13)            104.2715         calculate D2E/DX2 analytically  !
 ! A26   A(9,10,11)            111.0983         calculate D2E/DX2 analytically  !
 ! A27   A(9,10,22)            127.0102         calculate D2E/DX2 analytically  !
 ! A28   A(11,10,22)           121.8242         calculate D2E/DX2 analytically  !
 ! A29   A(10,11,12)           105.1373         calculate D2E/DX2 analytically  !
 ! A30   A(11,12,13)           111.5634         calculate D2E/DX2 analytically  !
 ! A31   A(11,12,23)           125.6073         calculate D2E/DX2 analytically  !
 ! A32   A(13,12,23)           122.8225         calculate D2E/DX2 analytically  !
 ! A33   A(9,13,12)            107.8912         calculate D2E/DX2 analytically  !
 ! A34   A(9,13,24)            126.1768         calculate D2E/DX2 analytically  !
 ! A35   A(12,13,24)           125.8125         calculate D2E/DX2 analytically  !
 ! A36   A(2,14,15)            114.1355         calculate D2E/DX2 analytically  !
 ! A37   A(2,14,25)            107.9306         calculate D2E/DX2 analytically  !
 ! A38   A(2,14,26)            108.4455         calculate D2E/DX2 analytically  !
 ! A39   A(15,14,25)           109.6656         calculate D2E/DX2 analytically  !
 ! A40   A(15,14,26)           109.8762         calculate D2E/DX2 analytically  !
 ! A41   A(25,14,26)           106.4904         calculate D2E/DX2 analytically  !
 ! A42   A(14,15,16)           111.7413         calculate D2E/DX2 analytically  !
 ! A43   A(14,15,27)           109.08           calculate D2E/DX2 analytically  !
 ! A44   A(14,15,28)           109.3767         calculate D2E/DX2 analytically  !
 ! A45   A(16,15,27)           108.97           calculate D2E/DX2 analytically  !
 ! A46   A(16,15,28)           109.9886         calculate D2E/DX2 analytically  !
 ! A47   A(27,15,28)           107.5867         calculate D2E/DX2 analytically  !
 ! A48   A(15,16,29)           112.3948         calculate D2E/DX2 analytically  !
 ! A49   A(15,16,30)           107.1637         calculate D2E/DX2 analytically  !
 ! A50   A(15,16,31)           112.6662         calculate D2E/DX2 analytically  !
 ! A51   A(29,16,30)           108.3673         calculate D2E/DX2 analytically  !
 ! A52   A(29,16,31)           109.2679         calculate D2E/DX2 analytically  !
 ! A53   A(30,16,31)           106.7156         calculate D2E/DX2 analytically  !
 ! D1    D(1,2,3,4)             19.5353         calculate D2E/DX2 analytically  !
 ! D2    D(1,2,3,17)          -177.1208         calculate D2E/DX2 analytically  !
 ! D3    D(14,2,3,4)          -159.4324         calculate D2E/DX2 analytically  !
 ! D4    D(14,2,3,17)            3.9116         calculate D2E/DX2 analytically  !
 ! D5    D(1,2,14,15)           -2.7105         calculate D2E/DX2 analytically  !
 ! D6    D(1,2,14,25)         -124.8903         calculate D2E/DX2 analytically  !
 ! D7    D(1,2,14,26)          120.1217         calculate D2E/DX2 analytically  !
 ! D8    D(3,2,14,15)          176.2313         calculate D2E/DX2 analytically  !
 ! D9    D(3,2,14,25)           54.0516         calculate D2E/DX2 analytically  !
 ! D10   D(3,2,14,26)          -60.9365         calculate D2E/DX2 analytically  !
 ! D11   D(2,3,4,5)           -153.9324         calculate D2E/DX2 analytically  !
 ! D12   D(2,3,4,8)             86.7643         calculate D2E/DX2 analytically  !
 ! D13   D(2,3,4,18)           -34.6031         calculate D2E/DX2 analytically  !
 ! D14   D(17,3,4,5)            42.1016         calculate D2E/DX2 analytically  !
 ! D15   D(17,3,4,8)           -77.2016         calculate D2E/DX2 analytically  !
 ! D16   D(17,3,4,18)          161.431          calculate D2E/DX2 analytically  !
 ! D17   D(3,4,5,6)            162.512          calculate D2E/DX2 analytically  !
 ! D18   D(3,4,5,7)            -19.5962         calculate D2E/DX2 analytically  !
 ! D19   D(8,4,5,6)            -75.0616         calculate D2E/DX2 analytically  !
 ! D20   D(8,4,5,7)            102.8302         calculate D2E/DX2 analytically  !
 ! D21   D(18,4,5,6)            44.631          calculate D2E/DX2 analytically  !
 ! D22   D(18,4,5,7)          -137.4772         calculate D2E/DX2 analytically  !
 ! D23   D(3,4,8,9)            -55.4448         calculate D2E/DX2 analytically  !
 ! D24   D(3,4,8,20)            64.8933         calculate D2E/DX2 analytically  !
 ! D25   D(3,4,8,21)          -178.4322         calculate D2E/DX2 analytically  !
 ! D26   D(5,4,8,9)           -174.8217         calculate D2E/DX2 analytically  !
 ! D27   D(5,4,8,20)           -54.4836         calculate D2E/DX2 analytically  !
 ! D28   D(5,4,8,21)            62.1909         calculate D2E/DX2 analytically  !
 ! D29   D(18,4,8,9)            65.036          calculate D2E/DX2 analytically  !
 ! D30   D(18,4,8,20)         -174.6259         calculate D2E/DX2 analytically  !
 ! D31   D(18,4,8,21)          -57.9514         calculate D2E/DX2 analytically  !
 ! D32   D(4,5,6,19)           178.1955         calculate D2E/DX2 analytically  !
 ! D33   D(7,5,6,19)             0.2653         calculate D2E/DX2 analytically  !
 ! D34   D(4,8,9,10)           102.3333         calculate D2E/DX2 analytically  !
 ! D35   D(4,8,9,13)           -73.2285         calculate D2E/DX2 analytically  !
 ! D36   D(20,8,9,10)          -18.7483         calculate D2E/DX2 analytically  !
 ! D37   D(20,8,9,13)          165.6898         calculate D2E/DX2 analytically  !
 ! D38   D(21,8,9,10)         -136.0673         calculate D2E/DX2 analytically  !
 ! D39   D(21,8,9,13)           48.3708         calculate D2E/DX2 analytically  !
 ! D40   D(8,9,10,11)         -174.3606         calculate D2E/DX2 analytically  !
 ! D41   D(8,9,10,22)            2.6761         calculate D2E/DX2 analytically  !
 ! D42   D(13,9,10,11)           1.8236         calculate D2E/DX2 analytically  !
 ! D43   D(13,9,10,22)         178.8603         calculate D2E/DX2 analytically  !
 ! D44   D(8,9,13,12)          175.669          calculate D2E/DX2 analytically  !
 ! D45   D(8,9,13,24)           -0.5304         calculate D2E/DX2 analytically  !
 ! D46   D(10,9,13,12)          -0.9332         calculate D2E/DX2 analytically  !
 ! D47   D(10,9,13,24)        -177.1326         calculate D2E/DX2 analytically  !
 ! D48   D(9,10,11,12)          -2.0211         calculate D2E/DX2 analytically  !
 ! D49   D(22,10,11,12)       -179.2363         calculate D2E/DX2 analytically  !
 ! D50   D(10,11,12,13)          1.3885         calculate D2E/DX2 analytically  !
 ! D51   D(10,11,12,23)       -179.5397         calculate D2E/DX2 analytically  !
 ! D52   D(11,12,13,9)          -0.3003         calculate D2E/DX2 analytically  !
 ! D53   D(11,12,13,24)        175.9167         calculate D2E/DX2 analytically  !
 ! D54   D(23,12,13,9)        -179.4022         calculate D2E/DX2 analytically  !
 ! D55   D(23,12,13,24)         -3.1853         calculate D2E/DX2 analytically  !
 ! D56   D(2,14,15,16)         -55.3687         calculate D2E/DX2 analytically  !
 ! D57   D(2,14,15,27)          65.1784         calculate D2E/DX2 analytically  !
 ! D58   D(2,14,15,28)        -177.3984         calculate D2E/DX2 analytically  !
 ! D59   D(25,14,15,16)         65.8549         calculate D2E/DX2 analytically  !
 ! D60   D(25,14,15,27)       -173.598          calculate D2E/DX2 analytically  !
 ! D61   D(25,14,15,28)        -56.1748         calculate D2E/DX2 analytically  !
 ! D62   D(26,14,15,16)       -177.4187         calculate D2E/DX2 analytically  !
 ! D63   D(26,14,15,27)        -56.8716         calculate D2E/DX2 analytically  !
 ! D64   D(26,14,15,28)         60.5516         calculate D2E/DX2 analytically  !
 ! D65   D(14,15,16,29)       -173.5573         calculate D2E/DX2 analytically  !
 ! D66   D(14,15,16,30)         67.498          calculate D2E/DX2 analytically  !
 ! D67   D(14,15,16,31)        -49.5803         calculate D2E/DX2 analytically  !
 ! D68   D(27,15,16,29)         65.8315         calculate D2E/DX2 analytically  !
 ! D69   D(27,15,16,30)        -53.1132         calculate D2E/DX2 analytically  !
 ! D70   D(27,15,16,31)       -170.1915         calculate D2E/DX2 analytically  !
 ! D71   D(28,15,16,29)        -51.8798         calculate D2E/DX2 analytically  !
 ! D72   D(28,15,16,30)       -170.8245         calculate D2E/DX2 analytically  !
 ! D73   D(28,15,16,31)         72.0972         calculate D2E/DX2 analytically  !
 --------------------------------------------------------------------------------
 Trust Radius=3.00D-01 FncErr=1.00D-07 GrdErr=1.00D-06
 Number of steps in this run=    167 maximum allowed number of steps=    186.
 GradGradGradGradGradGradGradGradGradGradGradGradGradGradGradGradGradGrad

                          Input orientation:                          
 ---------------------------------------------------------------------
 Center     Atomic      Atomic             Coordinates (Angstroms)
 Number     Number       Type             X           Y           Z
 ---------------------------------------------------------------------
      1          8           0       -0.138812   -0.148640   -1.767677
      2          6           0        0.377043    0.731988   -1.085918
      3          7           0       -0.368072    1.543392   -0.289539
      4          6           0       -1.699776    1.156991    0.113364
      5          6           0       -2.487034    2.416121    0.398227
      6          8           0       -3.813746    2.178739    0.409500
      7          8           0       -2.004782    3.493543    0.628056
      8          6           0       -1.714069    0.283474    1.397493
      9          6           0       -0.862288   -0.945898    1.292630
     10          6           0        0.377987   -1.245966    1.784068
     11          7           0        0.812918   -2.470876    1.320671
     12          6           0       -0.171359   -2.929311    0.591616
     13          7           0       -1.204965   -2.048844    0.537500
     14          6           0        1.876321    0.994236   -1.035383
     15          6           0        2.704922    0.023349   -1.859393
     16          7           0        2.440955   -1.385286   -1.477965
     17          1           0        0.063956    2.288359    0.230280
     18          1           0       -2.153784    0.605359   -0.708473
     19          1           0       -4.232284    3.021834    0.625295
     20          1           0       -1.346396    0.874791    2.237450
     21          1           0       -2.747575    0.015717    1.612359
     22          1           0        0.999445   -0.619573    2.414576
     23          1           0       -0.181899   -3.876737    0.073880
     24          1           0       -2.046031   -2.158257   -0.009859
     25          1           0        2.191957    0.950096    0.015249
     26          1           0        2.059958    2.018302   -1.371880
     27          1           0        2.464305    0.155904   -2.914855
     28          1           0        3.764060    0.252198   -1.731446
     29          1           0        3.066242   -2.039480   -1.949563
     30          1           0        1.479227   -1.599140   -1.758067
     31          1           0        2.493767   -1.536799   -0.466521
 ---------------------------------------------------------------------
                    Distance matrix (angstroms):
                    1          2          3          4          5
     1  O    0.000000
     2  C    1.227358   0.000000
     3  N    2.258412   1.359335   0.000000
     4  C    2.771208   2.435586   1.443978   0.000000
     5  C    4.096741   3.638946   2.392630   1.512062   0.000000
     6  O    4.864353   4.678897   3.572813   2.366545   1.347828
     7  O    4.742033   4.029514   2.706268   2.411931   1.202591
     8  C    3.561805   3.277384   2.499035   1.553133   2.478748
     9  C    3.244152   3.163659   2.990665   2.552292   3.839652
    10  C    3.753145   3.485559   3.554851   3.589227   4.851781
    11  N    3.979506   4.029888   4.483510   4.575220   5.968528
    12  C    3.646841   4.064477   4.562916   4.388923   5.828670
    13  N    3.171955   3.587654   3.780019   3.271407   4.647474
    14  C    2.429646   1.522879   2.427994   3.759598   4.807896
    15  C    2.850406   2.553322   3.770711   4.957648   6.146431
    16  N    2.875487   2.982664   4.228492   5.112841   6.500451
    17  H    3.157833   2.062205   1.005900   2.098669   2.559703
    18  H    2.398028   2.561949   2.060141   1.088961   2.148186
    19  H    5.703922   5.423794   4.237316   3.186426   1.861275
    20  H    4.306589   3.746386   2.791024   2.171694   2.656971
    21  H    4.272856   4.190105   3.407791   2.155777   2.702580
    22  H    4.359891   3.803625   3.723004   3.967058   5.043475
    23  H    4.158353   4.785175   5.435489   5.257749   6.709614
    24  H    3.281153   3.922079   4.073815   3.335557   4.613670
    25  H    3.133454   2.134023   2.645495   3.898464   4.918217
    26  H    3.112376   2.137424   2.700432   4.133208   4.895577
    27  H    2.860941   2.834351   4.103628   5.245174   6.371880
    28  H    3.923569   3.481205   4.562980   5.837420   6.949406
    29  H    3.725685   3.957109   5.233274   6.098197   7.496891
    30  H    2.173038   2.664723   3.929961   4.604841   6.041784
    31  H    3.248148   3.164106   4.208209   5.017825   6.417301
                    6          7          8          9         10
     6  O    0.000000
     7  O    2.246959   0.000000
     8  C    2.996131   3.313772   0.000000
     9  C    4.387981   4.632017   1.499294   0.000000
    10  C    5.584681   5.429263   2.620177   1.367419   0.000000
    11  N    6.622324   6.632755   3.738718   2.265538   1.379967
    12  C    6.276330   6.679507   3.653954   2.214212   2.134801
    13  N    4.969364   5.600532   2.537417   1.379906   2.168936
    14  C    5.988956   4.906783   4.394880   4.084574   3.900361
    15  C    7.230948   6.356962   5.495676   4.857950   4.505618
    16  N    7.442182   6.928410   5.321395   4.333668   3.862138
    17  H    3.883389   2.427009   2.922896   3.528021   3.873542
    18  H    2.545754   3.185925   2.175328   2.842318   4.006248
    19  H    0.965687   2.276902   3.799514   5.248343   6.388385
    20  H    3.336090   3.143482   1.091039   2.107594   2.770678
    21  H    2.694857   3.689968   1.089034   2.140382   3.374976
    22  H    5.917574   5.397662   3.035311   2.198022   1.084490
    23  H    7.069069   7.612558   4.626755   3.246244   3.187346
    24  H    4.702149   5.687836   2.837761   2.137180   3.150605
    25  H    6.142757   4.945430   4.196668   3.815090   3.352894
    26  H    6.139988   4.764262   4.992228   4.942229   4.841951
    27  H    7.386279   6.607934   6.005949   5.475685   5.328962
    28  H    8.106685   7.025176   6.308814   5.655402   5.105764
    29  H    8.407900   7.935600   6.280945   5.209711   4.668659
    30  H    6.854653   6.615687   4.868155   3.900791   3.726149
    31  H    7.372744   6.836620   4.949124   3.834956   3.102622
                   11         12         13         14         15
    11  N    0.000000
    12  C    1.307856   0.000000
    13  N    2.205294   1.358857   0.000000
    14  C    4.323056   4.715330   4.607453   0.000000
    15  C    4.462470   4.795689   5.032524   1.519274   0.000000
    16  N    3.414876   3.673059   4.218429   2.485320   1.483043
    17  H    4.939657   5.235457   4.529445   2.561507   4.058534
    18  H    4.730958   4.256070   3.081801   4.061999   5.026965
    19  H    7.490492   7.204746   5.906280   6.647109   7.955464
    20  H    4.086148   4.308210   3.384889   4.594737   5.824281
    21  H    4.352624   4.043760   2.792379   5.417421   6.463965
    22  H    2.158412   3.166837   3.228878   3.908390   4.646377
    23  H    2.126169   1.079712   2.145414   5.403065   5.223213
    24  H    3.168854   2.114401   1.009438   5.135635   5.545424
    25  H    3.912662   4.579002   4.561301   1.097909   2.153202
    26  H    5.381232   5.771739   5.554020   1.093464   2.152553
    27  H    5.250403   5.362892   5.499383   2.140313   1.090626
    28  H    5.043787   5.568316   5.927404   2.144454   1.091108
    29  H    3.994746   4.210872   4.942548   3.384534   2.096174
    30  H    3.268412   3.164617   3.560442   2.721314   2.035943
    31  H    2.625226   3.187733   3.866636   2.666642   2.102080
                   16         17         18         19         20
    16  N    0.000000
    17  H    4.697221   0.000000
    18  H    5.066202   2.938046   0.000000
    19  H    8.269131   4.376266   3.455206   0.000000
    20  H    5.766826   2.831254   3.066419   3.941723   0.000000
    21  H    6.199496   3.870368   2.467088   3.495052   1.758422
    22  H    4.220918   3.755311   4.603992   6.620601   2.787017
    23  H    3.936359   6.171978   4.958789   8.018725   5.349215
    24  H    4.783917   4.927687   2.852585   5.658309   3.839175
    25  H    2.783109   2.523009   4.419059   6.777546   4.178970
    26  H    3.426488   2.573688   4.493566   6.677432   5.092949
    27  H    2.107240   4.494542   5.137789   8.098798   6.448603
    28  H    2.120427   4.656725   6.015985   8.784454   6.500501
    29  H    1.020469   5.700493   5.981985   9.247447   6.745029
    30  H    1.024261   4.590115   4.377240   7.723676   5.483487
    31  H    1.024093   4.584903   5.123193   8.198351   5.279590
                   21         22         23         24         25
    21  H    0.000000
    22  H    3.884238   0.000000
    23  H    4.909258   4.181334   0.000000
    24  H    2.801770   4.185732   2.536765   0.000000
    25  H    5.274732   3.105273   5.379308   5.255762   0.000000
    26  H    6.002367   4.735011   6.470521   6.013143   1.755738
    27  H    6.904999   5.581220   5.674251   5.842728   3.048020
    28  H    7.323820   5.058911   5.989817   6.521603   2.451431
    29  H    7.121207   5.033239   4.245027   5.469177   3.682720
    30  H    5.642108   4.312852   3.361967   3.974454   3.186101
    31  H    5.848394   3.372688   3.595350   4.604837   2.551046
                   26         27         28         29         30
    26  H    0.000000
    27  H    2.452100   0.000000
    28  H    2.480398   1.760423   0.000000
    29  H    4.220417   2.472615   2.405476   0.000000
    30  H    3.684057   2.321360   2.940854   1.658067   0.000000
    31  H    3.694131   2.976650   2.532625   1.667282   1.643554
                   31
    31  H    0.000000
 Symmetry turned off by external request.
 Stoichiometry    C9H15N4O3(1+)
 Framework group  C1[X(C9H15N4O3)]
 Deg. of freedom    87
 Full point group                 C1      NOp   1
 Rotational constants (GHZ):      0.7464841      0.3985491      0.2973763
 Standard basis: 6-31G(d) (6D, 7F)
   270 basis functions,   508 primitive gaussians,   270 cartesian basis functions
    60 alpha electrons       60 beta electrons
       nuclear repulsion energy      1185.4331447700 Hartrees.
 NAtoms=   31 NActive=   31 NUniq=   31 SFac= 1.00D+00 NAtFMM=   60 NAOKFM=F Big=F
 Integral buffers will be    131072 words long.
 Raffenetti 2 integral format.
 Two-electron integral symmetry is turned off.
 One-electron integrals computed using PRISM.
 NBasis=   270 RedAO= T EigKep=  1.14D-03  NBF=   270
 NBsUse=   270 1.00D-06 EigRej= -1.00D+00 NBFU=   270
 ExpMin= 1.61D-01 ExpMax= 5.48D+03 ExpMxC= 8.25D+02 IAcc=3 IRadAn=         5 AccDes= 0.00D+00
 Harris functional with IExCor=  402 and IRadAn=       5 diagonalized for initial guess.
 HarFok:  IExCor=  402 AccDes= 0.00D+00 IRadAn=         5 IDoV= 1 UseB2=F ITyADJ=14
 ICtDFT=  3500011 ScaDFX=  1.000000  1.000000  1.000000  1.000000
 FoFCou: FMM=F IPFlag=           0 FMFlag=      100000 FMFlg1=           0
         NFxFlg=           0 DoJE=T BraDBF=F KetDBF=T FulRan=T
         wScrn=  0.000000 ICntrl=     500 IOpCl=  0 I1Cent=   200000004 NGrid=           0
         NMat0=    1 NMatS0=      1 NMatT0=    0 NMatD0=    1 NMtDS0=    0 NMtDT0=    0
 Symmetry not used in FoFCou.
 Requested convergence on RMS density matrix=1.00D-08 within 128 cycles.
 Requested convergence on MAX density matrix=1.00D-06.
 Requested convergence on             energy=1.00D-06.
 No special actions if energy rises.
 Integral accuracy reduced to 1.0D-05 until final iterations.
 Initial convergence to 1.0D-05 achieved.  Increase integral accuracy.
 SCF Done:  E(RB3LYP) =  -796.472699054     A.U. after   14 cycles
            NFock= 14  Conv=0.65D-08     -V/T= 2.0089
 DoSCS=F DFT=T ScalE2(SS,OS)=  1.000000  1.000000
 Range of M.O.s used for correlation:     1   270
 NBasis=   270 NAE=    60 NBE=    60 NFC=     0 NFV=     0
 NROrb=    270 NOA=    60 NOB=    60 NVA=   210 NVB=   210
 Symmetrizing basis deriv contribution to polar:
 IMax=3 JMax=2 DiffMx= 0.00D+00
 G2DrvN: will do    32 centers at a time, making    1 passes.
 Calling FoFCou, ICntrl=  3107 FMM=F I1Cent=   0 AccDes= 0.00D+00.
 End of G2Drv F.D. properties file   721 does not exist.
 End of G2Drv F.D. properties file   722 does not exist.
 End of G2Drv F.D. properties file   788 does not exist.
          IDoAtm=1111111111111111111111111111111
          Differentiating once with respect to nuclear coordinates.
          There are    96 degrees of freedom in the 1st order CPHF.  IDoFFX=6 NUNeed=     0.
     90 vectors produced by pass  0 Test12= 1.31D-14 1.04D-09 XBig12= 1.45D-01 1.06D-01.
 AX will form    90 AO Fock derivatives at one time.
     90 vectors produced by pass  1 Test12= 1.31D-14 1.04D-09 XBig12= 1.46D-02 3.51D-02.
     90 vectors produced by pass  2 Test12= 1.31D-14 1.04D-09 XBig12= 1.25D-04 1.44D-03.
     90 vectors produced by pass  3 Test12= 1.31D-14 1.04D-09 XBig12= 4.64D-07 1.30D-04.
     90 vectors produced by pass  4 Test12= 1.31D-14 1.04D-09 XBig12= 6.60D-10 2.42D-06.
     67 vectors produced by pass  5 Test12= 1.31D-14 1.04D-09 XBig12= 6.10D-13 7.13D-08.
      8 vectors produced by pass  6 Test12= 1.31D-14 1.04D-09 XBig12= 5.14D-16 2.42D-09.
 InvSVY:  IOpt=1 It=  1 EMax= 5.00D-16
 Solved reduced A of dimension   525 with    96 vectors.
 End of Minotr F.D. properties file   721 does not exist.
 End of Minotr F.D. properties file   722 does not exist.
 End of Minotr F.D. properties file   788 does not exist.

 **********************************************************************

            Population analysis using the SCF density.

 **********************************************************************

 Alpha  occ. eigenvalues --  -19.30857 -19.26973 -19.25816 -14.62988 -14.51142
 Alpha  occ. eigenvalues --  -14.49802 -14.43812 -10.44124 -10.43769 -10.41957
 Alpha  occ. eigenvalues --  -10.36815 -10.36633 -10.36172 -10.34247 -10.32943
 Alpha  occ. eigenvalues --  -10.31839  -1.22526  -1.19385  -1.17829  -1.13942
 Alpha  occ. eigenvalues --   -1.13698  -1.06917  -0.99461  -0.95978  -0.92408
 Alpha  occ. eigenvalues --   -0.87435  -0.83682  -0.79720  -0.76555  -0.76195
 Alpha  occ. eigenvalues --   -0.73902  -0.73473  -0.72357  -0.71188  -0.68307
 Alpha  occ. eigenvalues --   -0.66331  -0.65008  -0.62182  -0.61166  -0.60824
 Alpha  occ. eigenvalues --   -0.59325  -0.58526  -0.57349  -0.56759  -0.55863
 Alpha  occ. eigenvalues --   -0.55313  -0.54253  -0.53049  -0.52909  -0.52653
 Alpha  occ. eigenvalues --   -0.51882  -0.50073  -0.49375  -0.43395  -0.41494
 Alpha  occ. eigenvalues --   -0.41039  -0.39723  -0.39193  -0.39065  -0.34988
 Alpha virt. eigenvalues --   -0.13218  -0.12516  -0.11273  -0.09331  -0.06376
 Alpha virt. eigenvalues --   -0.06327  -0.05188  -0.04245  -0.03704  -0.03561
 Alpha virt. eigenvalues --   -0.01894  -0.01000  -0.00507   0.01425   0.01542
 Alpha virt. eigenvalues --    0.02196   0.03110   0.03689   0.04647   0.05477
 Alpha virt. eigenvalues --    0.06374   0.07758   0.09526   0.10349   0.12071
 Alpha virt. eigenvalues --    0.12642   0.13264   0.17179   0.18316   0.20495
 Alpha virt. eigenvalues --    0.21430   0.24648   0.25867   0.26889   0.31196
 Alpha virt. eigenvalues --    0.33282   0.34299   0.35690   0.38269   0.39626
 Alpha virt. eigenvalues --    0.40467   0.41296   0.42411   0.43645   0.44068
 Alpha virt. eigenvalues --    0.45060   0.46747   0.47808   0.49252   0.49826
 Alpha virt. eigenvalues --    0.50995   0.51195   0.52267   0.53099   0.53924
 Alpha virt. eigenvalues --    0.55724   0.56673   0.57454   0.58936   0.59654
 Alpha virt. eigenvalues --    0.62259   0.63038   0.64798   0.65407   0.66353
 Alpha virt. eigenvalues --    0.66902   0.67945   0.68612   0.69109   0.70455
 Alpha virt. eigenvalues --    0.70742   0.71208   0.72012   0.73202   0.73736
 Alpha virt. eigenvalues --    0.74792   0.75299   0.76490   0.77673   0.78474
 Alpha virt. eigenvalues --    0.78669   0.79426   0.81301   0.82226   0.82597
 Alpha virt. eigenvalues --    0.83151   0.85272   0.86657   0.87652   0.90220
 Alpha virt. eigenvalues --    0.91897   0.93824   0.95823   0.97663   1.00773
 Alpha virt. eigenvalues --    1.01918   1.03167   1.04561   1.08916   1.11139
 Alpha virt. eigenvalues --    1.14166   1.16359   1.17631   1.19774   1.21980
 Alpha virt. eigenvalues --    1.23221   1.23798   1.25951   1.26368   1.27516
 Alpha virt. eigenvalues --    1.29335   1.32434   1.33375   1.36290   1.38266
 Alpha virt. eigenvalues --    1.39927   1.41756   1.42980   1.44383   1.46744
 Alpha virt. eigenvalues --    1.51049   1.53079   1.55111   1.58159   1.60583
 Alpha virt. eigenvalues --    1.61083   1.63354   1.64435   1.65067   1.67585
 Alpha virt. eigenvalues --    1.68924   1.69850   1.70563   1.71791   1.74366
 Alpha virt. eigenvalues --    1.74485   1.75769   1.77325   1.77996   1.79725
 Alpha virt. eigenvalues --    1.80722   1.83104   1.83939   1.85967   1.86857
 Alpha virt. eigenvalues --    1.92439   1.92803   1.94542   1.96164   1.98682
 Alpha virt. eigenvalues --    1.99694   2.00948   2.02356   2.07576   2.09273
 Alpha virt. eigenvalues --    2.10607   2.11611   2.13122   2.14753   2.16882
 Alpha virt. eigenvalues --    2.17747   2.21035   2.22925   2.23910   2.25696
 Alpha virt. eigenvalues --    2.27506   2.28528   2.29530   2.29990   2.32541
 Alpha virt. eigenvalues --    2.36097   2.38505   2.38789   2.43935   2.47717
 Alpha virt. eigenvalues --    2.48424   2.51074   2.51691   2.53766   2.58532
 Alpha virt. eigenvalues --    2.58640   2.62848   2.66293   2.67514   2.72387
 Alpha virt. eigenvalues --    2.74742   2.80834   2.86197   2.88509   2.88904
 Alpha virt. eigenvalues --    2.91407   2.99822   3.01480   3.05337   3.61732
 Alpha virt. eigenvalues --    3.75659   3.82022   3.88226   3.91844   3.99998
 Alpha virt. eigenvalues --    4.02721   4.05063   4.07067   4.14981   4.18090
 Alpha virt. eigenvalues --    4.25336   4.28285   4.36174   4.46023   4.55785
          Condensed to atoms (all electrons):
               1          2          3          4          5          6
     1  O    8.126513   0.538533  -0.093760   0.001867   0.000236   0.000000
     2  C    0.538533   4.315109   0.303061  -0.025259   0.004657  -0.000018
     3  N   -0.093760   0.303061   7.106474   0.239261  -0.037932   0.001963
     4  C    0.001867  -0.025259   0.239261   5.191457   0.288827  -0.100123
     5  C    0.000236   0.004657  -0.037932   0.288827   4.338231   0.293567
     6  O    0.000000  -0.000018   0.001963  -0.100123   0.293567   8.211392
     7  O   -0.000003   0.000733  -0.003615  -0.084789   0.587185  -0.084676
     8  C   -0.000853  -0.004456  -0.056754   0.324034  -0.037817   0.002922
     9  C    0.000031   0.010156  -0.009353  -0.044901   0.002509   0.000083
    10  C   -0.001330   0.005657   0.002211  -0.004999  -0.000097  -0.000001
    11  N   -0.000235  -0.000339   0.000058  -0.000059   0.000001   0.000000
    12  C    0.002121  -0.000074  -0.000107   0.000522   0.000002   0.000000
    13  N   -0.001325  -0.000627  -0.000434  -0.000377   0.000006   0.000003
    14  C   -0.093415   0.310330  -0.122238   0.007041  -0.000224   0.000000
    15  C    0.011191  -0.031022   0.005492  -0.000184   0.000001   0.000000
    16  N   -0.017416  -0.005035  -0.000375   0.000007   0.000000   0.000000
    17  H    0.002725  -0.022686   0.298100  -0.034250  -0.002060   0.000402
    18  H    0.013345  -0.002157  -0.045240   0.362763  -0.020732   0.003293
    19  H    0.000000   0.000001  -0.000246   0.010520  -0.007544   0.226555
    20  H   -0.000035  -0.000146  -0.002239  -0.037745  -0.002876  -0.000064
    21  H   -0.000081   0.000221   0.004853  -0.040647  -0.002576   0.005008
    22  H   -0.000006   0.000002   0.000025   0.000018   0.000001   0.000000
    23  H    0.000041   0.000005  -0.000001   0.000001   0.000000   0.000000
    24  H    0.000399   0.000001  -0.000005   0.000484  -0.000031  -0.000001
    25  H    0.001193  -0.026775  -0.000521  -0.000557  -0.000008   0.000000
    26  H    0.000996  -0.016890   0.000238  -0.000034   0.000002   0.000000
    27  H    0.003660  -0.003189   0.000114  -0.000004   0.000000   0.000000
    28  H    0.000298   0.003432  -0.000035   0.000001   0.000000   0.000000
    29  H    0.000342   0.000278   0.000003   0.000000   0.000000   0.000000
    30  H    0.045841   0.003250   0.000713   0.000025   0.000000   0.000000
    31  H    0.000210  -0.000741  -0.000062  -0.000006   0.000000   0.000000
               7          8          9         10         11         12
     1  O   -0.000003  -0.000853   0.000031  -0.001330  -0.000235   0.002121
     2  C    0.000733  -0.004456   0.010156   0.005657  -0.000339  -0.000074
     3  N   -0.003615  -0.056754  -0.009353   0.002211   0.000058  -0.000107
     4  C   -0.084789   0.324034  -0.044901  -0.004999  -0.000059   0.000522
     5  C    0.587185  -0.037817   0.002509  -0.000097   0.000001   0.000002
     6  O   -0.084676   0.002922   0.000083  -0.000001   0.000000   0.000000
     7  O    8.001277  -0.003227  -0.000113   0.000001   0.000000   0.000000
     8  C   -0.003227   5.209213   0.365783  -0.055994   0.006654   0.006069
     9  C   -0.000113   0.365783   4.695439   0.562784  -0.047183  -0.084653
    10  C    0.000001  -0.055994   0.562784   5.000975   0.403375  -0.126976
    11  N    0.000000   0.006654  -0.047183   0.403375   6.709716   0.520810
    12  C    0.000000   0.006069  -0.084653  -0.126976   0.520810   4.766510
    13  N    0.000000  -0.068878   0.343945  -0.071813  -0.084144   0.353334
    14  C   -0.000048  -0.000309  -0.000905  -0.000762   0.000048   0.000031
    15  C    0.000000   0.000008  -0.000062  -0.000449   0.000047   0.000092
    16  N    0.000000   0.000002   0.000014   0.000039  -0.005699  -0.000715
    17  H    0.019243   0.000376  -0.000375   0.000096   0.000001  -0.000001
    18  H    0.001773  -0.033874  -0.007525  -0.000044   0.000009  -0.000055
    19  H    0.009003  -0.000259   0.000013   0.000000   0.000000   0.000000
    20  H    0.002083   0.367997  -0.033377  -0.003098   0.000060  -0.000105
    21  H    0.000060   0.354822  -0.021481   0.002821  -0.000141  -0.000085
    22  H    0.000000  -0.001278  -0.055222   0.383220  -0.043266   0.007272
    23  H    0.000000  -0.000152   0.002787   0.007335  -0.040321   0.384108
    24  H    0.000000  -0.002783  -0.026602   0.008409   0.004685  -0.023649
    25  H   -0.000001   0.000197   0.000386   0.002811  -0.000066  -0.000100
    26  H   -0.000002  -0.000010   0.000035   0.000059   0.000001  -0.000001
    27  H    0.000000   0.000001   0.000000   0.000000  -0.000004  -0.000004
    28  H    0.000000   0.000000   0.000001   0.000003  -0.000006  -0.000003
    29  H    0.000000   0.000000   0.000001   0.000024   0.000136   0.000051
    30  H    0.000000   0.000008  -0.000364  -0.000807   0.000652   0.004421
    31  H    0.000000  -0.000025   0.000398   0.002734   0.024983   0.000511
              13         14         15         16         17         18
     1  O   -0.001325  -0.093415   0.011191  -0.017416   0.002725   0.013345
     2  C   -0.000627   0.310330  -0.031022  -0.005035  -0.022686  -0.002157
     3  N   -0.000434  -0.122238   0.005492  -0.000375   0.298100  -0.045240
     4  C   -0.000377   0.007041  -0.000184   0.000007  -0.034250   0.362763
     5  C    0.000006  -0.000224   0.000001   0.000000  -0.002060  -0.020732
     6  O    0.000003   0.000000   0.000000   0.000000   0.000402   0.003293
     7  O    0.000000  -0.000048   0.000000   0.000000   0.019243   0.001773
     8  C   -0.068878  -0.000309   0.000008   0.000002   0.000376  -0.033874
     9  C    0.343945  -0.000905  -0.000062   0.000014  -0.000375  -0.007525
    10  C   -0.071813  -0.000762  -0.000449   0.000039   0.000096  -0.000044
    11  N   -0.084144   0.000048   0.000047  -0.005699   0.000001   0.000009
    12  C    0.353334   0.000031   0.000092  -0.000715  -0.000001  -0.000055
    13  N    6.850937  -0.000044   0.000029  -0.000078  -0.000003   0.002232
    14  C   -0.000044   5.381934   0.329104  -0.040887   0.000348   0.000874
    15  C    0.000029   0.329104   5.031734   0.206555   0.000005  -0.000003
    16  N   -0.000078  -0.040887   0.206555   6.830473   0.000012   0.000006
    17  H   -0.000003   0.000348   0.000005   0.000012   0.373749   0.004672
    18  H    0.002232   0.000874  -0.000003   0.000006   0.004672   0.505053
    19  H    0.000000   0.000000   0.000000   0.000000  -0.000038  -0.000330
    20  H    0.003728  -0.000005   0.000000   0.000000   0.002355   0.004687
    21  H   -0.003473   0.000002   0.000000   0.000000  -0.000096  -0.001702
    22  H    0.004901  -0.000080  -0.000013   0.000063   0.000032   0.000006
    23  H   -0.053608   0.000001  -0.000001   0.000063   0.000000   0.000002
    24  H    0.307788   0.000009   0.000000   0.000008   0.000001   0.000569
    25  H   -0.000010   0.355494  -0.035586  -0.003069   0.000679  -0.000029
    26  H   -0.000002   0.357285  -0.023580   0.003160   0.000970  -0.000020
    27  H    0.000001  -0.034758   0.384401  -0.032284  -0.000005  -0.000003
    28  H    0.000000  -0.030957   0.383637  -0.032947  -0.000008   0.000000
    29  H   -0.000006   0.003479  -0.019696   0.302991   0.000000   0.000000
    30  H    0.000331  -0.011718  -0.015244   0.253138  -0.000035  -0.000045
    31  H   -0.000211  -0.000712  -0.017540   0.266976   0.000000  -0.000002
              19         20         21         22         23         24
     1  O    0.000000  -0.000035  -0.000081  -0.000006   0.000041   0.000399
     2  C    0.000001  -0.000146   0.000221   0.000002   0.000005   0.000001
     3  N   -0.000246  -0.002239   0.004853   0.000025  -0.000001  -0.000005
     4  C    0.010520  -0.037745  -0.040647   0.000018   0.000001   0.000484
     5  C   -0.007544  -0.002876  -0.002576   0.000001   0.000000  -0.000031
     6  O    0.226555  -0.000064   0.005008   0.000000   0.000000  -0.000001
     7  O    0.009003   0.002083   0.000060   0.000000   0.000000   0.000000
     8  C   -0.000259   0.367997   0.354822  -0.001278  -0.000152  -0.002783
     9  C    0.000013  -0.033377  -0.021481  -0.055222   0.002787  -0.026602
    10  C    0.000000  -0.003098   0.002821   0.383220   0.007335   0.008409
    11  N    0.000000   0.000060  -0.000141  -0.043266  -0.040321   0.004685
    12  C    0.000000  -0.000105  -0.000085   0.007272   0.384108  -0.023649
    13  N    0.000000   0.003728  -0.003473   0.004901  -0.053608   0.307788
    14  C    0.000000  -0.000005   0.000002  -0.000080   0.000001   0.000009
    15  C    0.000000   0.000000   0.000000  -0.000013  -0.000001   0.000000
    16  N    0.000000   0.000000   0.000000   0.000063   0.000063   0.000008
    17  H   -0.000038   0.002355  -0.000096   0.000032   0.000000   0.000001
    18  H   -0.000330   0.004687  -0.001702   0.000006   0.000002   0.000569
    19  H    0.328135  -0.000079  -0.000084   0.000000   0.000000   0.000000
    20  H   -0.000079   0.531349  -0.023318   0.002533   0.000003  -0.000062
    21  H   -0.000084  -0.023318   0.521305  -0.000018  -0.000004   0.001385
    22  H    0.000000   0.002533  -0.000018   0.551608  -0.000138  -0.000094
    23  H    0.000000   0.000003  -0.000004  -0.000138   0.518453   0.000232
    24  H    0.000000  -0.000062   0.001385  -0.000094   0.000232   0.374544
    25  H    0.000000   0.000017   0.000001   0.000819   0.000000  -0.000001
    26  H    0.000000   0.000001   0.000000   0.000001   0.000000   0.000000
    27  H    0.000000   0.000000   0.000000   0.000000   0.000000   0.000000
    28  H    0.000000   0.000000   0.000000   0.000000   0.000000   0.000000
    29  H    0.000000   0.000000   0.000000   0.000000   0.000004   0.000000
    30  H    0.000000   0.000000  -0.000001  -0.000008   0.000160  -0.000002
    31  H    0.000000  -0.000001   0.000000  -0.000373  -0.000203  -0.000033
              25         26         27         28         29         30
     1  O    0.001193   0.000996   0.003660   0.000298   0.000342   0.045841
     2  C   -0.026775  -0.016890  -0.003189   0.003432   0.000278   0.003250
     3  N   -0.000521   0.000238   0.000114  -0.000035   0.000003   0.000713
     4  C   -0.000557  -0.000034  -0.000004   0.000001   0.000000   0.000025
     5  C   -0.000008   0.000002   0.000000   0.000000   0.000000   0.000000
     6  O    0.000000   0.000000   0.000000   0.000000   0.000000   0.000000
     7  O   -0.000001  -0.000002   0.000000   0.000000   0.000000   0.000000
     8  C    0.000197  -0.000010   0.000001   0.000000   0.000000   0.000008
     9  C    0.000386   0.000035   0.000000   0.000001   0.000001  -0.000364
    10  C    0.002811   0.000059   0.000000   0.000003   0.000024  -0.000807
    11  N   -0.000066   0.000001  -0.000004  -0.000006   0.000136   0.000652
    12  C   -0.000100  -0.000001  -0.000004  -0.000003   0.000051   0.004421
    13  N   -0.000010  -0.000002   0.000001   0.000000  -0.000006   0.000331
    14  C    0.355494   0.357285  -0.034758  -0.030957   0.003479  -0.011718
    15  C   -0.035586  -0.023580   0.384401   0.383637  -0.019696  -0.015244
    16  N   -0.003069   0.003160  -0.032284  -0.032947   0.302991   0.253138
    17  H    0.000679   0.000970  -0.000005  -0.000008   0.000000  -0.000035
    18  H   -0.000029  -0.000020  -0.000003   0.000000   0.000000  -0.000045
    19  H    0.000000   0.000000   0.000000   0.000000   0.000000   0.000000
    20  H    0.000017   0.000001   0.000000   0.000000   0.000000   0.000000
    21  H    0.000001   0.000000   0.000000   0.000000   0.000000  -0.000001
    22  H    0.000819   0.000001   0.000000   0.000000   0.000000  -0.000008
    23  H    0.000000   0.000000   0.000000   0.000000   0.000004   0.000160
    24  H   -0.000001   0.000000   0.000000   0.000000   0.000000  -0.000002
    25  H    0.518671  -0.020369   0.004396  -0.002665  -0.000100  -0.000222
    26  H   -0.020369   0.467798  -0.002696  -0.001317  -0.000070   0.000123
    27  H    0.004396  -0.002696   0.466555  -0.024878  -0.001387  -0.002973
    28  H   -0.002665  -0.001317  -0.024878   0.476886  -0.002769   0.003501
    29  H   -0.000100  -0.000070  -0.001387  -0.002769   0.311055  -0.008530
    30  H   -0.000222   0.000123  -0.002973   0.003501  -0.008530   0.304689
    31  H    0.004065   0.000000   0.003003  -0.001978  -0.010763  -0.011188
              31
     1  O    0.000210
     2  C   -0.000741
     3  N   -0.000062
     4  C   -0.000006
     5  C    0.000000
     6  O    0.000000
     7  O    0.000000
     8  C   -0.000025
     9  C    0.000398
    10  C    0.002734
    11  N    0.024983
    12  C    0.000511
    13  N   -0.000211
    14  C   -0.000712
    15  C   -0.017540
    16  N    0.266976
    17  H    0.000000
    18  H   -0.000002
    19  H    0.000000
    20  H   -0.000001
    21  H    0.000000
    22  H   -0.000373
    23  H   -0.000203
    24  H   -0.000033
    25  H    0.004065
    26  H    0.000000
    27  H    0.003003
    28  H   -0.001978
    29  H   -0.010763
    30  H   -0.011188
    31  H    0.313759
 Mulliken charges:
               1
     1  O   -0.541083
     2  C    0.643989
     3  N   -0.589650
     4  C   -0.052893
     5  C    0.596673
     6  O   -0.560304
     7  O   -0.444882
     8  C   -0.371415
     9  C    0.347752
    10  C   -0.116182
    11  N   -0.449773
    12  C    0.190674
    13  N   -0.582203
    14  C   -0.408918
    15  C   -0.208914
    16  N   -0.725002
    17  H    0.355789
    18  H    0.212477
    19  H    0.434353
    20  H    0.188337
    21  H    0.203229
    22  H    0.149995
    23  H    0.181232
    24  H    0.354750
    25  H    0.201350
    26  H    0.234323
    27  H    0.240054
    28  H    0.229804
    29  H    0.424957
    30  H    0.434284
    31  H    0.427198
 Sum of Mulliken charges =   1.00000
 Mulliken charges with hydrogens summed into heavy atoms:
               1
     1  O   -0.541083
     2  C    0.643989
     3  N   -0.233861
     4  C    0.159584
     5  C    0.596673
     6  O   -0.125951
     7  O   -0.444882
     8  C    0.020151
     9  C    0.347752
    10  C    0.033812
    11  N   -0.449773
    12  C    0.371905
    13  N   -0.227453
    14  C    0.026755
    15  C    0.260944
    16  N    0.561437
 APT charges:
               1
     1  O   -0.393316
     2  C    0.166661
     3  N   -0.575055
     4  C   -0.485645
     5  C   -0.431849
     6  O   -0.814044
     7  O    0.281219
     8  C   -1.001731
     9  C   -0.137739
    10  C   -0.336122
    11  N   -0.327549
    12  C   -0.293399
    13  N   -0.770608
    14  C   -0.774304
    15  C   -1.212212
    16  N   -1.078241
    17  H    0.618180
    18  H    0.386630
    19  H    1.163812
    20  H    0.451314
    21  H    0.614293
    22  H    0.440315
    23  H    0.763897
    24  H    0.677777
    25  H    0.301283
    26  H    0.623446
    27  H    0.595513
    28  H    0.772289
    29  H    1.111422
    30  H    0.316995
    31  H    0.346768
 Sum of APT charges =   1.00000
 APT charges with hydrogens summed into heavy atoms:
               1
     1  O   -0.393316
     2  C    0.166661
     3  N    0.043125
     4  C   -0.099015
     5  C   -0.431849
     6  O    0.349767
     7  O    0.281219
     8  C    0.063876
     9  C   -0.137739
    10  C    0.104193
    11  N   -0.327549
    12  C    0.470498
    13  N   -0.092830
    14  C    0.150425
    15  C    0.155590
    16  N    0.696944
 Electronic spatial extent (au):  <R**2>=           3770.4306
 Charge=              1.0000 electrons
 Dipole moment (field-independent basis, Debye):
    X=              5.2649    Y=             -2.1697    Z=             -4.7811  Tot=              7.4354
 Quadrupole moment (field-independent basis, Debye-Ang):
   XX=            -45.7921   YY=            -77.1886   ZZ=            -82.3595
   XY=             -7.7943   XZ=            -21.5345   YZ=             11.8879
 Traceless Quadrupole moment (field-independent basis, Debye-Ang):
   XX=             22.6546   YY=             -8.7419   ZZ=            -13.9127
   XY=             -7.7943   XZ=            -21.5345   YZ=             11.8879
 Octapole moment (field-independent basis, Debye-Ang**2):
  XXX=             99.4226  YYY=            -63.6346  ZZZ=            -29.2099  XYY=             14.0003
  XXY=              4.4468  XXZ=            -42.4797  XZZ=             57.9095  YZZ=             -5.6505
  YYZ=            -40.4710  XYZ=             15.7386
 Hexadecapole moment (field-independent basis, Debye-Ang**3):
 XXXX=          -1405.2273 YYYY=          -1817.4457 ZZZZ=           -809.1663 XXXY=            116.9222
 XXXZ=            119.3438 YYYX=            366.6361 YYYZ=            134.3366 ZZZX=            237.8685
 ZZZY=            112.1620 XXYY=           -389.9697 XXZZ=           -360.9173 YYZZ=           -445.2809
 XXYZ=            120.0170 YYXZ=             28.5528 ZZXY=            100.4701
 N-N= 1.185433144770D+03 E-N=-4.211122830167D+03  KE= 7.894329068256D+02
  Exact polarizability:   0.000   0.000   0.000   0.000   0.000   0.000
 Approx polarizability: 191.376  -6.720 195.883  10.462  29.601 147.132
 Calling FoFJK, ICntrl=    100147 FMM=F ISym2X=0 I1Cent= 0 IOpClX= 0 NMat=1 NMatS=1 NMatT=0.
 -------------------------------------------------------------------
 Center     Atomic                   Forces (Hartrees/Bohr)
 Number     Number              X              Y              Z
 -------------------------------------------------------------------
      1        8           0.009235096   -0.017178636   -0.008161280
      2        6          -0.009797638    0.013017769    0.009998642
      3        7           0.007614245   -0.010905346   -0.003822535
      4        6          -0.003558049    0.003303404   -0.000516318
      5        6          -0.014902676   -0.003136454   -0.004149513
      6        8           0.007530114   -0.009591025   -0.002491261
      7        8           0.009837716    0.009404463    0.002456288
      8        6           0.006499163   -0.009681939    0.001124730
      9        6          -0.009284424    0.003731515   -0.001449982
     10        6           0.010441952    0.005493434   -0.000408629
     11        7           0.014354078    0.004174715    0.005647412
     12        6          -0.004745433   -0.003618477   -0.008784173
     13        7          -0.004730121   -0.000590778   -0.001488451
     14        6          -0.001207386   -0.000707938    0.008083207
     15        6           0.004315815    0.025245592   -0.008685731
     16        7          -0.001731856   -0.004338611   -0.003213471
     17        1           0.001737403    0.006087610    0.003677203
     18        1          -0.001348777    0.000635034   -0.001653944
     19        1          -0.007482928    0.008771938    0.002882781
     20        1          -0.000096081    0.002230214    0.002275805
     21        1          -0.004602136    0.000371696    0.001665610
     22        1          -0.000820604   -0.002570543    0.001286377
     23        1          -0.001431111   -0.002201316   -0.000178740
     24        1          -0.002285968   -0.000720973    0.000217371
     25        1           0.000316506    0.001530940    0.000201652
     26        1           0.004146469    0.000642461   -0.002113228
     27        1          -0.000588965   -0.006802299   -0.002038974
     28        1           0.001472383   -0.004521226    0.001396699
     29        1           0.003915102   -0.003204810   -0.000297772
     30        1          -0.011336464    0.000294328    0.000876378
     31        1          -0.001465425   -0.005164742    0.007663849
 -------------------------------------------------------------------
 Cartesian Forces:  Max     0.025245592 RMS     0.006412425
 FormGI is forming the generalized inverse of G from B-inverse, IUseBI=4.
 GSVD:  received Info=                   1 from GESDD.

 GradGradGradGradGradGradGradGradGradGradGradGradGradGradGradGradGradGrad
 Berny optimization.
 Internal  Forces:  Max     0.028415588 RMS     0.006719377
 Search for a local minimum.
 Step number   1 out of a maximum of  167
 All quantities printed in internal units (Hartrees-Bohrs-Radians)
 Mixed Optimization -- RFO/linear search
 Second derivative matrix not updated -- analytic derivatives used.
 ITU=  0
     Eigenvalues ---   -0.00524   0.00215   0.00264   0.00358   0.00372
     Eigenvalues ---    0.00549   0.00726   0.00781   0.01002   0.01370
     Eigenvalues ---    0.01866   0.02073   0.02282   0.02583   0.03127
     Eigenvalues ---    0.03907   0.03945   0.04128   0.04172   0.04219
     Eigenvalues ---    0.04417   0.04810   0.05022   0.05172   0.05243
     Eigenvalues ---    0.05785   0.05955   0.06081   0.06359   0.07977
     Eigenvalues ---    0.08406   0.08637   0.10633   0.11241   0.11273
     Eigenvalues ---    0.11865   0.12023   0.12225   0.12696   0.13802
     Eigenvalues ---    0.14798   0.15167   0.15642   0.16134   0.17675
     Eigenvalues ---    0.18882   0.20480   0.20655   0.22416   0.23445
     Eigenvalues ---    0.23725   0.24480   0.24696   0.25731   0.26375
     Eigenvalues ---    0.28747   0.29785   0.33017   0.33122   0.33592
     Eigenvalues ---    0.34395   0.34629   0.34689   0.34864   0.34924
     Eigenvalues ---    0.35319   0.35639   0.36009   0.36585   0.37189
     Eigenvalues ---    0.38008   0.38122   0.42336   0.42501   0.43254
     Eigenvalues ---    0.43596   0.44703   0.45232   0.45649   0.47697
     Eigenvalues ---    0.48359   0.49117   0.50337   0.53258   0.60491
     Eigenvalues ---    0.83065   0.93950
 RFO step:  Lambda=-3.26605417D-02 EMin=-5.24160644D-03
 Linear search not attempted -- first point.
 Maximum step size (   0.300) exceeded in Quadratic search.
    -- Step size scaled by   0.783
 Iteration  1 RMS(Cart)=  0.37465279 RMS(Int)=  0.03160361
 Iteration  2 RMS(Cart)=  0.18961610 RMS(Int)=  0.00655547
 Iteration  3 RMS(Cart)=  0.01017166 RMS(Int)=  0.00136166
 Iteration  4 RMS(Cart)=  0.00004638 RMS(Int)=  0.00136140
 Iteration  5 RMS(Cart)=  0.00000013 RMS(Int)=  0.00136140
 Variable       Old X    -DE/DX   Delta X   Delta X   Delta X     New X
                                 (Linear)    (Quad)   (Total)
    R1        2.31937   0.01298   0.00000   0.00834   0.00834   2.32771
    R2        2.56877  -0.00296   0.00000   0.01169   0.01169   2.58046
    R3        2.87782  -0.00156   0.00000   0.00978   0.00978   2.88760
    R4        2.72872   0.00351   0.00000   0.01616   0.01616   2.74488
    R5        1.90088   0.00715   0.00000   0.01040   0.01040   1.91128
    R6        2.85738   0.00690   0.00000   0.00940   0.00940   2.86678
    R7        2.93500   0.00180   0.00000   0.04070   0.04070   2.97570
    R8        2.05784   0.00149   0.00000   0.00170   0.00170   2.05954
    R9        2.54703   0.00010   0.00000  -0.00521  -0.00521   2.54182
   R10        2.27257   0.01284   0.00000   0.00690   0.00690   2.27947
   R11        1.82488   0.01155   0.00000   0.01610   0.01610   1.84098
   R12        2.83326  -0.00182   0.00000  -0.00386  -0.00386   2.82940
   R13        2.06176   0.00293   0.00000   0.00475   0.00475   2.06651
   R14        2.05798   0.00460   0.00000   0.00631   0.00631   2.06429
   R15        2.58405   0.01023   0.00000   0.01068   0.01107   2.59512
   R16        2.60764   0.00367   0.00000  -0.00488  -0.00450   2.60314
   R17        2.60776   0.00205   0.00000   0.01225   0.01200   2.61976
   R18        2.04939  -0.00121   0.00000  -0.00450  -0.00450   2.04488
   R19        2.47149   0.01473   0.00000   0.04002   0.03958   2.51107
   R20        2.56787   0.00482   0.00000  -0.01087  -0.01096   2.55691
   R21        2.04036   0.00203   0.00000   0.00268   0.00268   2.04304
   R22        1.90756   0.00186   0.00000   0.00527   0.00527   1.91283
   R23        2.87101  -0.00159   0.00000   0.01165   0.01165   2.88267
   R24        2.07475   0.00022   0.00000  -0.00572  -0.00572   2.06903
   R25        2.06635   0.00195   0.00000   0.00450   0.00450   2.07085
   R26        2.80254   0.01497   0.00000   0.03566   0.03566   2.83821
   R27        2.06099   0.00128   0.00000   0.00262   0.00262   2.06360
   R28        2.06189   0.00064   0.00000   0.00060   0.00060   2.06249
   R29        1.92841   0.00459   0.00000   0.00389   0.00389   1.93230
   R30        1.93557   0.01034   0.00000   0.00556   0.00556   1.94113
   R31        1.93525   0.00826   0.00000   0.06105   0.06105   1.99630
    A1        2.12155   0.01393   0.00000   0.01621   0.01445   2.13600
    A2        2.16009  -0.02244   0.00000  -0.02555  -0.02706   2.13303
    A3        2.00140   0.00838   0.00000   0.00762   0.00599   2.00739
    A4        2.10513  -0.00660   0.00000  -0.02682  -0.03296   2.07216
    A5        2.10528   0.00312   0.00000  -0.01200  -0.01863   2.08665
    A6        2.03766   0.00190   0.00000  -0.01190  -0.01839   2.01927
    A7        1.88589   0.00726   0.00000   0.03606   0.03686   1.92275
    A8        1.97109  -0.02253   0.00000  -0.10428  -0.10441   1.86668
    A9        1.88544   0.00530   0.00000   0.01720   0.01602   1.90146
   A10        1.88366   0.01358   0.00000   0.03780   0.03841   1.92207
   A11        1.92510  -0.00524   0.00000   0.00219   0.00123   1.92633
   A12        1.91266   0.00155   0.00000   0.01191   0.01092   1.92357
   A13        1.94702  -0.00075   0.00000  -0.01017  -0.01020   1.93682
   A14        2.18129  -0.00545   0.00000  -0.01388  -0.01390   2.16738
   A15        2.15426   0.00617   0.00000   0.02361   0.02358   2.17784
   A16        1.84910   0.00507   0.00000   0.02070   0.02070   1.86980
   A17        1.98025  -0.02840   0.00000  -0.10959  -0.11041   1.86985
   A18        1.90562   0.00493   0.00000  -0.02711  -0.02974   1.87589
   A19        1.88614   0.01008   0.00000   0.07407   0.07591   1.96205
   A20        1.88262   0.00831   0.00000   0.01172   0.00671   1.88933
   A21        1.92981   0.01022   0.00000   0.04981   0.05184   1.98165
   A22        1.87672  -0.00422   0.00000   0.00473   0.00459   1.88131
   A23        2.30513  -0.00300   0.00000  -0.04671  -0.04869   2.25644
   A24        2.15626   0.00083   0.00000   0.03498   0.03118   2.18744
   A25        1.81988   0.00202   0.00000   0.00433   0.00284   1.82272
   A26        1.93903   0.00001   0.00000  -0.00583  -0.00556   1.93347
   A27        2.21675   0.00127   0.00000   0.01013   0.00941   2.22615
   A28        2.12623  -0.00130   0.00000  -0.00656  -0.00708   2.11915
   A29        1.83499  -0.00178   0.00000  -0.00410  -0.00462   1.83037
   A30        1.94715   0.00068   0.00000  -0.00790  -0.00809   1.93906
   A31        2.19226   0.00061   0.00000   0.00454   0.00462   2.19688
   A32        2.14366  -0.00128   0.00000   0.00344   0.00352   2.14718
   A33        1.88306  -0.00097   0.00000   0.01158   0.01199   1.89505
   A34        2.20220   0.00042   0.00000  -0.00289  -0.00318   2.19902
   A35        2.19584   0.00051   0.00000  -0.01037  -0.01090   2.18494
   A36        1.99204  -0.02842   0.00000  -0.02034  -0.02087   1.97116
   A37        1.88374   0.00658   0.00000  -0.02427  -0.02500   1.85875
   A38        1.89273   0.01417   0.00000   0.05390   0.05404   1.94677
   A39        1.91403   0.00751   0.00000  -0.01625  -0.01708   1.89695
   A40        1.91770   0.00545   0.00000   0.00491   0.00489   1.92259
   A41        1.85861  -0.00375   0.00000   0.00373   0.00402   1.86263
   A42        1.95025  -0.01682   0.00000   0.00094   0.00103   1.95129
   A43        1.90380   0.00860   0.00000   0.03246   0.03239   1.93619
   A44        1.90898   0.00740   0.00000   0.00171   0.00162   1.91061
   A45        1.90189  -0.00181   0.00000  -0.04107  -0.04102   1.86086
   A46        1.91966   0.00466   0.00000  -0.00109  -0.00113   1.91854
   A47        1.87774  -0.00147   0.00000   0.00748   0.00703   1.88478
   A48        1.96166   0.00044   0.00000  -0.02065  -0.02220   1.93946
   A49        1.87036  -0.00249   0.00000  -0.02679  -0.02602   1.84434
   A50        1.96640   0.00532   0.00000   0.12582   0.12532   2.09172
   A51        1.89137   0.00221   0.00000   0.01044   0.01000   1.90137
   A52        1.90708  -0.00289   0.00000  -0.01277  -0.01473   1.89235
   A53        1.86254  -0.00281   0.00000  -0.08368  -0.08200   1.78054
    D1        0.34095   0.00072   0.00000   0.19279   0.19143   0.53238
    D2       -3.09134  -0.00535   0.00000  -0.01425  -0.01447  -3.10581
    D3       -2.78262   0.00813   0.00000   0.29542   0.29563  -2.48699
    D4        0.06827   0.00206   0.00000   0.08837   0.08974   0.15801
    D5       -0.04731   0.00130   0.00000  -0.04380  -0.04420  -0.09151
    D6       -2.17975   0.00573   0.00000   0.00832   0.00741  -2.17234
    D7        2.09652  -0.00054   0.00000  -0.01107  -0.01153   2.08499
    D8        3.07582  -0.00586   0.00000  -0.14850  -0.14772   2.92810
    D9        0.94338  -0.00143   0.00000  -0.09637  -0.09611   0.84726
   D10       -1.06354  -0.00770   0.00000  -0.11577  -0.11505  -1.17859
   D11       -2.68663  -0.00460   0.00000  -0.14355  -0.14344  -2.83007
   D12        1.51432  -0.01261   0.00000  -0.15101  -0.15003   1.36430
   D13       -0.60394  -0.00384   0.00000  -0.11130  -0.11068  -0.71461
   D14        0.73481   0.00098   0.00000   0.05565   0.05462   0.78943
   D15       -1.34742  -0.00702   0.00000   0.04820   0.04803  -1.29939
   D16        2.81750   0.00174   0.00000   0.08790   0.08738   2.90489
   D17        2.83637   0.00792   0.00000   0.04041   0.04022   2.87659
   D18       -0.34202   0.00718   0.00000   0.02794   0.02783  -0.31419
   D19       -1.31007  -0.00693   0.00000  -0.04171  -0.04163  -1.35170
   D20        1.79473  -0.00768   0.00000  -0.05418  -0.05401   1.74071
   D21        0.77896   0.00019   0.00000  -0.00289  -0.00291   0.77605
   D22       -2.39943  -0.00056   0.00000  -0.01536  -0.01529  -2.41472
   D23       -0.96769   0.00648   0.00000   0.07284   0.07062  -0.89707
   D24        1.13260   0.00187   0.00000  -0.00339  -0.00253   1.13007
   D25       -3.11423   0.00510   0.00000   0.02857   0.02851  -3.08572
   D26       -3.05121   0.00210   0.00000   0.06626   0.06488  -2.98633
   D27       -0.95092  -0.00251   0.00000  -0.00998  -0.00827  -0.95918
   D28        1.08544   0.00072   0.00000   0.02198   0.02277   1.10821
   D29        1.13509  -0.00060   0.00000   0.03403   0.03238   1.16747
   D30       -3.04780  -0.00521   0.00000  -0.04221  -0.04077  -3.08857
   D31       -1.01144  -0.00199   0.00000  -0.01024  -0.00973  -1.02118
   D32        3.11010  -0.00092   0.00000  -0.00600  -0.00612   3.10398
   D33        0.00463   0.00010   0.00000   0.00716   0.00729   0.01192
   D34        1.78605  -0.00587   0.00000  -0.28670  -0.28572   1.50033
   D35       -1.27808  -0.00289   0.00000  -0.13780  -0.13745  -1.41553
   D36       -0.32722   0.00020   0.00000  -0.19076  -0.19067  -0.51789
   D37        2.89183   0.00318   0.00000  -0.04187  -0.04240   2.84944
   D38       -2.37482  -0.00530   0.00000  -0.23109  -0.23123  -2.60605
   D39        0.84423  -0.00232   0.00000  -0.08220  -0.08296   0.76127
   D40       -3.04317   0.00382   0.00000   0.17851   0.17503  -2.86814
   D41        0.04671   0.00315   0.00000   0.12839   0.12600   0.17270
   D42        0.03183   0.00127   0.00000   0.05204   0.05194   0.08377
   D43        3.12170   0.00060   0.00000   0.00192   0.00291   3.12461
   D44        3.06600  -0.00350   0.00000  -0.15173  -0.15560   2.91040
   D45       -0.00926  -0.00288   0.00000  -0.12471  -0.12766  -0.13691
   D46       -0.01629  -0.00103   0.00000  -0.03526  -0.03505  -0.05134
   D47       -3.09155  -0.00041   0.00000  -0.00824  -0.00711  -3.09865
   D48       -0.03527  -0.00084   0.00000  -0.04866  -0.04867  -0.08395
   D49       -3.12826  -0.00030   0.00000  -0.00213  -0.00370  -3.13196
   D50        0.02423   0.00021   0.00000   0.02513   0.02561   0.04984
   D51       -3.13356   0.00110   0.00000   0.03005   0.02977  -3.10379
   D52       -0.00524   0.00056   0.00000   0.00647   0.00597   0.00073
   D53        3.07033  -0.00006   0.00000  -0.02006  -0.02133   3.04899
   D54       -3.13116  -0.00032   0.00000   0.00169   0.00193  -3.12923
   D55       -0.05559  -0.00094   0.00000  -0.02484  -0.02537  -0.08096
   D56       -0.96637   0.00679   0.00000   0.10713   0.10699  -0.85937
   D57        1.13758  -0.00045   0.00000   0.07802   0.07774   1.21532
   D58       -3.09619   0.00696   0.00000   0.10670   0.10661  -2.98958
   D59        1.14939   0.00127   0.00000   0.04965   0.04984   1.19923
   D60       -3.02986  -0.00597   0.00000   0.02053   0.02059  -3.00927
   D61       -0.98044   0.00145   0.00000   0.04921   0.04945  -0.93098
   D62       -3.09654   0.00428   0.00000   0.04752   0.04756  -3.04898
   D63       -0.99260  -0.00296   0.00000   0.01841   0.01831  -0.97429
   D64        1.05682   0.00446   0.00000   0.04709   0.04717   1.10400
   D65       -3.02915  -0.00090   0.00000   0.03899   0.03869  -2.99046
   D66        1.17806  -0.00228   0.00000   0.05536   0.05481   1.23287
   D67       -0.86534  -0.00027   0.00000   0.10374   0.10463  -0.76071
   D68        1.14898   0.00024   0.00000   0.02519   0.02492   1.17390
   D69       -0.92700  -0.00113   0.00000   0.04156   0.04105  -0.88595
   D70       -2.97040   0.00088   0.00000   0.08994   0.09086  -2.87954
   D71       -0.90547   0.00039   0.00000   0.04104   0.04067  -0.86481
   D72       -2.98145  -0.00098   0.00000   0.05741   0.05679  -2.92466
   D73        1.25833   0.00103   0.00000   0.10579   0.10661   1.36494
         Item               Value     Threshold  Converged?
 Maximum Force            0.028416     0.000450     NO 
 RMS     Force            0.006719     0.000300     NO 
 Maximum Displacement     1.974254     0.001800     NO 
 RMS     Displacement     0.550321     0.001200     NO 
 Predicted change in Energy=-2.666512D-02
 GradGradGradGradGradGradGradGradGradGradGradGradGradGradGradGradGradGrad

                          Input orientation:                          
 ---------------------------------------------------------------------
 Center     Atomic      Atomic             Coordinates (Angstroms)
 Number     Number       Type             X           Y           Z
 ---------------------------------------------------------------------
      1          8           0       -0.206798   -0.114414   -1.796803
      2          6           0        0.284417    0.750033   -1.069686
      3          7           0       -0.481258    1.628249   -0.357559
      4          6           0       -1.791706    1.200212    0.099992
      5          6           0       -2.637327    2.405422    0.465770
      6          8           0       -3.935111    2.068410    0.572537
      7          8           0       -2.191696    3.504850    0.684165
      8          6           0       -1.562236    0.294497    1.367515
      9          6           0       -0.550869   -0.743305    0.990853
     10          6           0        0.820249   -0.672995    1.022273
     11          7           0        1.382473   -1.697090    0.275941
     12          6           0        0.352311   -2.440827   -0.113081
     13          7           0       -0.819444   -1.902336    0.296528
     14          6           0        1.781777    0.808289   -0.770581
     15          6           0        2.551301   -0.371741   -1.355674
     16          7           0        1.901352   -1.683334   -1.019465
     17          1           0       -0.032625    2.341241    0.202183
     18          1           0       -2.272527    0.625513   -0.691414
     19          1           0       -4.418677    2.870314    0.841215
     20          1           0       -1.130183    0.926111    2.148697
     21          1           0       -2.493967   -0.124460    1.754342
     22          1           0        1.430843    0.102236    1.466282
     23          1           0        0.411665   -3.352772   -0.690733
     24          1           0       -1.738156   -2.250824    0.053368
     25          1           0        1.882175    0.786767    0.319477
     26          1           0        2.223323    1.752317   -1.109293
     27          1           0        2.588249   -0.311736   -2.445409
     28          1           0        3.576816   -0.358338   -0.982380
     29          1           0        2.496018   -2.469583   -1.291029
     30          1           0        1.035736   -1.713691   -1.571672
     31          1           0        1.544065   -1.857427   -0.040683
 ---------------------------------------------------------------------
                    Distance matrix (angstroms):
                    1          2          3          4          5
     1  O    0.000000
     2  C    1.231770   0.000000
     3  N    2.276757   1.365520   0.000000
     4  C    2.799644   2.425096   1.452530   0.000000
     5  C    4.168486   3.692495   2.435263   1.517036   0.000000
     6  O    4.927353   4.715869   3.603876   2.360350   1.345072
     7  O    4.816024   4.098310   2.744525   2.410935   1.206245
     8  C    3.466602   3.091535   2.433781   1.574671   2.534752
     9  C    2.878353   2.678354   2.728980   2.471956   3.813594
    10  C    3.051889   2.586197   2.982211   3.343922   4.662744
    11  N    3.053999   3.000808   3.864284   4.301247   5.746775
    12  C    2.925700   3.331860   4.160768   4.230765   5.723560
    13  N    2.820290   3.181211   3.606554   3.257256   4.678687
    14  C    2.420525   1.528053   2.442181   3.698822   4.858794
    15  C    2.804982   2.545375   3.767308   4.842697   6.160532
    16  N    2.740449   2.922033   4.132981   4.817333   6.286768
    17  H    3.171202   2.061579   1.011405   2.099227   2.618792
    18  H    2.456951   2.587770   2.079804   1.089859   2.154119
    19  H    5.797211   5.501474   4.299192   3.199942   1.878907
    20  H    4.183575   3.519955   2.682429   2.170238   2.700387
    21  H    4.223964   4.057005   3.403398   2.232667   2.842758
    22  H    3.657394   2.857458   3.051433   3.668395   4.780763
    23  H    3.477478   4.122233   5.071380   5.119546   6.617450
    24  H    3.214411   3.789089   4.098276   3.451766   4.760169
    25  H    3.107181   2.117535   2.598516   3.703581   4.802848
    26  H    3.140516   2.183003   2.809849   4.229380   5.151048
    27  H    2.876093   2.885760   4.188619   5.286687   6.569974
    28  H    3.877953   3.475055   4.561238   5.694000   6.953494
    29  H    3.620476   3.912302   5.150512   5.812651   7.294056
    30  H    2.037710   2.624196   3.865734   4.390867   5.882997
    31  H    3.031100   3.073175   4.043795   4.527285   5.992696
                    6          7          8          9         10
     6  O    0.000000
     7  O    2.261707   0.000000
     8  C    3.067457   3.342088   0.000000
     9  C    4.419708   4.564338   1.497254   0.000000
    10  C    5.507359   5.161445   2.594507   1.373279   0.000000
    11  N    6.522549   6.324674   3.718772   2.271259   1.386318
    12  C    6.259814   6.516030   3.652349   2.217203   2.152493
    13  N    5.054738   5.592047   2.554374   1.377524   2.174069
    14  C    6.006220   5.017590   4.002232   3.309279   2.516558
    15  C    7.193460   6.456386   4.978034   3.907392   2.956675
    16  N    7.118592   6.824416   4.648218   3.307329   2.521560
    17  H    3.929503   2.499576   2.808357   3.225678   3.238141
    18  H    2.538446   3.192074   2.203015   2.769077   3.766711
    19  H    0.974204   2.320936   3.882148   5.295334   6.327255
    20  H    3.414198   3.149850   1.093550   2.112618   2.762273
    21  H    2.877888   3.795858   1.092375   2.177502   3.438145
    22  H    5.784296   5.031130   3.000873   2.206390   1.082106
    23  H    7.062544   7.462896   4.629821   3.250157   3.206639
    24  H    4.873595   5.807873   2.869946   2.135683   3.158125
    25  H    5.962169   4.910947   3.633825   2.951537   1.937141
    26  H    6.391774   5.077426   4.752923   4.281926   3.520559
    27  H    7.571480   6.870839   5.668548   4.674207   3.909111
    28  H    8.045863   7.139841   5.688415   4.591256   3.422909
    29  H    8.088614   7.846649   5.583675   4.179778   3.374507
    30  H    6.603880   6.537452   4.406937   3.166307   2.803218
    31  H    6.768278   6.575357   4.032729   2.587293   1.748332
                   11         12         13         14         15
    11  N    0.000000
    12  C    1.328803   0.000000
    13  N    2.211557   1.353056   0.000000
    14  C    2.744372   3.610047   3.905452   0.000000
    15  C    2.405177   3.265075   4.053938   1.525442   0.000000
    16  N    1.395529   1.948040   3.030269   2.506875   1.501914
    17  H    4.279726   4.807883   4.316935   2.566762   4.057569
    18  H    4.437261   4.077583   3.078554   4.059194   4.970420
    19  H    7.405001   7.202862   6.002445   6.730190   7.994863
    20  H    4.086788   4.318530   3.395173   4.124994   5.245794
    21  H    4.436848   4.117539   2.844309   5.052449   5.931954
    22  H    2.157968   3.181948   3.232711   2.371755   3.073031
    23  H    2.149001   1.081132   2.143380   4.381553   3.729173
    24  H    3.177182   2.105673   1.012227   4.735715   4.890378
    25  H    2.533998   3.597910   3.811895   1.094883   2.143829
    26  H    3.811078   4.698467   4.958957   1.095846   2.163307
    27  H    3.283115   3.869393   4.654094   2.170231   1.092011
    28  H    2.861953   3.935718   4.831836   2.151289   1.091425
    29  H    2.071744   2.446195   3.719462   3.394916   2.099566
    30  H    1.879940   1.767281   2.639592   2.749310   2.035786
    31  H    0.389962   1.328862   2.387865   2.774040   2.225081
                   16         17         18         19         20
    16  N    0.000000
    17  H    4.629243   0.000000
    18  H    4.781177   2.959628   0.000000
    19  H    8.008783   4.463825   3.463242   0.000000
    20  H    5.102613   2.645022   3.075962   4.037775   0.000000
[...]
 04925,0.00031119,0.00008195,-0.07281246,-0.00893038,-0.29185419,-0.002
 25363,0.00007117,-0.01507544,-0.00005333,-0.00021130,0.00085597,-0.000
 27634,0.00050111,-0.00013010,0.00015585,0.00002777,-0.00001057,-0.0000
 1225,0.00000384,-0.00000786,0.00000735,0.00000691,-0.00003383,0.000020
 83,0.00001161,-0.00003779,0.00022482,0.00034475,-0.00009298,0.00000134
 ,0.00001164,-0.00000818,-0.00001710,-0.00001241,0.00000791,0.07581894,
 0.01136013,0.31720581,-0.00468886,0.00094479,-0.00296808,-0.00147750,-
 0.03243437,0.01382413,-0.00033678,0.00248753,-0.00110057,-0.00033896,0
 .00035227,-0.00021993,-0.00016193,-0.00033843,-0.00010125,-0.00005734,
 0.00012252,0.00004137,0.00003209,0.00016347,-0.00002697,0.00000538,0.0
 0024377,-0.00018736,0.00020761,0.00001693,-0.00002163,-0.00017750,0.00
 002691,0.00006577,0.00019269,0.00009201,-0.00012394,-0.00011932,-0.000
 05597,-0.00009204,0.00013103,0.00000559,0.00002027,-0.05705913,-0.0461
 0827,0.02288054,0.00438553,0.01545945,-0.00798379,-0.00198178,0.003592
 09,0.00228423,-0.00046437,-0.00012778,0.00080405,0.00006458,0.00004062
 ,0.00000945,-0.00002695,-0.00000606,0.00002365,0.00000205,-0.00001470,
 0.00002585,-0.00000567,-0.00000890,0.00002579,-0.00000543,0.00003114,0
 .00001677,-0.00000488,-0.00000211,0.00000767,0.00000276,0.00000178,0.0
 0000024,0.00195782,0.00944604,-0.00373919,0.05975514,-0.00087042,0.000
 79273,0.00034354,-0.00343446,-0.00480389,0.00049015,0.00119589,-0.0000
 5513,-0.00050167,-0.00072292,0.00021732,-0.00026038,-0.00008450,0.0000
 7793,0.00003074,0.00004142,-0.00002650,-0.00001383,0.00002923,-0.00006
 081,-0.00001532,0.00026785,0.00001021,-0.00001186,0.00000798,-0.000036
 16,0.00003704,-0.00001204,-0.00006338,-0.00005039,-0.00011191,-0.00001
 455,0.00010187,0.00006940,0.00004276,0.00005690,-0.00004753,0.00001772
 ,-0.00003088,-0.04099868,-0.26222961,0.09518446,-0.00444952,-0.0197122
 3,0.00863697,0.00331982,-0.00211809,-0.00262315,0.00009439,0.00004918,
 0.00043348,0.00001057,0.00001853,0.00001828,-0.00000218,0.00000390,0.0
 0000320,-0.00000871,0.00000155,0.00000394,-0.00000039,0.00004807,-0.00
 006656,0.00001818,0.00001073,0.00002470,0.00000418,0.00000618,-0.00000
 264,0.00000473,-0.00000275,-0.00000348,0.00066978,0.00230061,-0.000314
 03,0.04555005,0.28458472,-0.00153424,0.00002445,-0.00143330,-0.0010743
 4,-0.00412934,0.00106176,0.00086182,-0.00013573,0.00054087,0.00008018,
 -0.00000928,-0.00039769,0.00010744,0.00022664,0.00010597,-0.00006557,-
 0.00006112,-0.00001929,-0.00010835,-0.00013737,-0.00004885,0.00011824,
 -0.00009681,0.00009348,-0.00036228,0.00005244,-0.00010246,0.00025123,0
 .00010858,-0.00039807,-0.00006647,-0.00018895,0.00005141,0.00023028,0.
 00004052,0.00009767,0.00004652,0.00021394,0.00014674,0.02023855,0.0967
 7495,-0.08740203,-0.00401908,-0.01566421,0.00604538,0.00243406,-0.0044
 2150,-0.00146780,0.00063292,0.00010482,-0.00030696,-0.00003791,-0.0000
 3332,0.00002492,0.00001425,0.00000253,0.00000276,0.00000888,0.00000492
 ,-0.00002101,0.00001209,-0.00000036,-0.00003219,0.00003798,0.00004641,
 0.00028657,0.00001812,0.00001480,-0.00000814,-0.00002033,0.00001061,0.
 00000366,0.00602442,0.02961887,-0.01189098,-0.02320069,-0.10163349,0.0
 9418004,-0.00020385,-0.00043975,-0.00125850,0.00085888,0.00062895,0.00
 164546,-0.00007166,-0.00024416,-0.00046910,-0.00016286,0.00000953,-0.0
 0007023,-0.00006588,0.00004488,0.00000085,0.00004419,-0.00001344,-0.00
 001279,0.00003607,-0.00002736,-0.00001834,0.00006707,-0.00003594,0.000
 01713,-0.00003009,0.00002340,-0.00000164,0.00004688,-0.00015518,-0.000
 03569,-0.00030096,-0.00004677,0.00034767,0.00017776,0.00003941,0.00012
 235,-0.00012813,0.00005255,-0.00008387,0.00232574,-0.00186493,0.019443
 51,-0.05676410,0.00439486,-0.02641817,-0.00025979,-0.00630520,0.014888
 16,0.00015468,-0.00008529,0.00008066,-0.00004415,0.00000038,0.00002145
 ,-0.00000862,0.00000352,0.00000819,-0.00000326,0.00000671,-0.00000574,
 -0.00000310,0.00002317,-0.00002183,-0.00000424,0.00002596,-0.00001556,
 -0.00000034,-0.00000754,0.00000552,-0.00000507,-0.00000560,0.00001646,
 -0.00180904,0.00236644,0.00167327,0.00120849,-0.00067216,-0.00062803,0
 .05380201,0.00037788,0.00100936,0.00015424,-0.00149740,-0.00065193,-0.
 00058047,0.00062214,-0.00005530,0.00015980,-0.00016620,-0.00005326,0.0
 0013743,-0.00006301,0.00001307,-0.00004198,0.00008052,-0.00001541,-0.0
 0000683,0.00006979,0.00000739,0.00001955,0.00005925,-0.00008438,-0.000
 01605,-0.00022867,0.00001391,-0.00006920,0.00006192,-0.00045791,-0.000
 26016,-0.00084854,-0.00033982,0.00104665,0.00058635,0.00025755,0.00036
 031,-0.00033396,0.00025562,-0.00003358,-0.00193062,0.00168688,-0.02368
 187,0.00181988,-0.05203208,0.02763630,-0.00209450,-0.01722172,0.040483
 26,-0.00018824,0.00020414,-0.00004863,0.00004880,0.00001697,-0.0000091
 8,-0.00000385,0.00000060,-0.00000128,-0.00001408,0.00001883,0.00000632
 ,-0.00000388,0.00003021,-0.00001603,0.00001969,0.00001071,0.00014814,0
 .00000067,-0.00000440,0.00001680,0.00000140,0.00003627,0.00000068,0.00
 361718,-0.00244642,-0.00222822,-0.00026965,0.00088180,-0.00035180,-0.0
 0126807,0.07075917,0.00004362,0.00054445,0.00104674,-0.00082259,-0.001
 01183,-0.00083831,0.00015940,0.00019722,0.00016862,0.00000363,-0.00003
 900,0.00005448,-0.00001841,0.00000666,-0.00000149,0.00002173,-0.000005
 45,0.00000089,0.00001316,-0.00000202,0.00000833,-0.00001451,0.00001014
 ,-0.00000744,-0.00000875,0.00000439,-0.00001944,-0.00004564,-0.0000164
 2,-0.00002386,0.00002632,-0.00002745,0.00000211,-0.00000057,0.00000559
 ,0.00001055,0.00003410,0.00002955,0.00001959,-0.00102485,-0.00076943,-
 0.01383182,-0.02160468,0.03781334,-0.32189395,0.00023701,0.00229482,-0
 .00255735,-0.00011101,0.00013089,-0.00005134,0.00002530,0.00001640,0.0
 0000173,-0.00000242,0.00000088,-0.00000274,-0.00000320,-0.00000073,0.0
 0000567,0.00000255,-0.00000192,0.00000528,-0.00000235,-0.00000383,0.00
 005187,0.00000315,0.00000200,-0.00000199,-0.00000424,0.00000174,-0.000
 00674,0.00190191,-0.00191204,0.00020521,-0.00008897,-0.00002608,0.0007
 9587,0.02207831,-0.03867253,0.34162364,0.00048157,0.00001201,-0.000125
 50,0.00061282,0.00276064,0.00140394,-0.00105755,-0.00039927,0.00012037
 ,0.00015961,0.00018859,0.00008887,0.00003660,-0.00014137,0.00000587,-0
 .00007633,0.00004891,0.00001428,-0.00003266,0.00005219,0.00001639,-0.0
 0008262,0.00002142,-0.00002012,0.00000582,0.00003960,-0.00000020,-0.00
 007619,-0.00002446,-0.00001580,0.00005371,-0.00000008,0.00004816,-0.00
 001045,-0.00001576,0.00000282,0.00007037,-0.00000367,0.00003813,-0.014
 75581,-0.00007976,-0.00397746,-0.30741626,-0.01684641,-0.07491004,-0.0
 0664661,-0.00267346,-0.00145801,0.00000819,-0.00006748,-0.00009256,-0.
 00000164,-0.00000531,0.00000013,0.00000228,-0.00000384,-0.00000517,0.0
 0000261,-0.00000203,0.00000281,0.00000350,-0.00002142,0.00002590,-0.00
 002642,0.00001770,0.00002054,0.00000667,0.00001181,-0.00000853,0.00000
 553,0.00000936,-0.00000522,0.00094423,-0.00057887,0.00013601,-0.000029
 96,0.00026302,-0.00001053,0.00036158,0.00069195,-0.00057265,0.32678916
 ,-0.00016798,0.00151968,0.00034734,-0.00039739,-0.00459852,-0.00281804
 ,0.00198386,0.00085664,-0.00011863,-0.00023738,-0.00042553,-0.00009726
 ,-0.00003921,0.00022773,-0.00002488,0.00015169,-0.00009011,-0.00002749
 ,0.00006956,-0.00006948,-0.00002122,0.00010264,-0.00002949,0.00000528,
 0.00001892,0.00000869,0.00001556,-0.00000602,-0.00006783,-0.00006790,-
 0.00018884,-0.00011904,0.00021647,0.00016745,0.00006823,0.00019509,-0.
 00006443,-0.00000248,-0.00006162,0.02194568,0.00378168,0.00595923,-0.0
 0670913,-0.05149659,-0.00065373,-0.03912092,-0.01009736,-0.01000755,-0
 .00004368,0.00014063,0.00012723,0.00000909,0.00000924,-0.00000595,-0.0
 0000037,0.00000446,0.00000951,-0.00001019,0.00001383,-0.00000189,-0.00
 000608,0.00004099,-0.00003846,0.00001077,0.00000960,0.00004525,0.00000
 941,0.00004037,-0.00002905,0.00000945,-0.00000956,-0.00000244,-0.00036
 796,0.00089781,0.00004863,-0.00051099,0.00026659,0.00050163,0.00509629
 ,0.00138494,0.00047784,0.01827518,0.06254418,-0.00050315,0.00053342,0.
 00078387,0.00061956,-0.00434943,-0.00185001,0.00131619,0.00059628,-0.0
 0022470,-0.00009707,-0.00019106,-0.00018678,-0.00000935,0.00012499,-0.
 00001376,0.00006275,-0.00004691,-0.00001071,0.00002224,-0.00004090,-0.
 00001442,0.00009654,-0.00003092,0.00002785,0.00001886,-0.00004261,0.00
 001136,0.00006262,0.00001251,0.00002703,-0.00008544,-0.00001642,-0.000
 02188,0.00000492,0.00003865,0.00000033,-0.00011130,-0.00000839,-0.0000
 5057,0.01923197,0.00056654,0.00411595,-0.07853302,-0.00422412,-0.07633
 081,0.00980298,0.00238624,0.00257918,0.00000943,0.00005574,0.00008732,
 0.00000177,0.00000971,0.00000412,0.00000459,0.00000022,0.00000473,0.00
 000023,0.00000195,-0.00000396,-0.00000594,0.00002627,-0.00002903,0.000
 03890,-0.00001473,-0.00003108,-0.00000976,-0.00001375,0.00000904,-0.00
 000026,-0.00000424,0.00000001,0.00030363,0.00073325,0.00081525,-0.0004
 7982,0.00014463,0.00027546,-0.03142749,-0.00256229,-0.00625874,0.07906
 648,0.00538808,0.07589524,-0.00260701,0.00358557,-0.00007246,-0.001719
 30,-0.00185127,-0.00164844,0.00001577,0.00037456,0.00058498,0.00013224
 ,-0.00001313,-0.00002275,-0.00001845,0.00006134,0.00005238,0.00002267,
 -0.00001768,-0.00000697,-0.00000296,-0.00003220,-0.00002234,-0.0000582
 4,0.00003482,0.00001041,-0.00005849,-0.00010489,-0.00009719,0.00016168
 ,-0.00004274,-0.00002758,0.00005183,-0.00002060,-0.00008021,-0.0000316
 7,0.00007866,0.00002547,0.00001031,0.00007928,-0.00000324,-0.00109383,
 -0.00350532,0.00129908,0.01059561,-0.00882706,-0.00996741,-0.16974994,
 0.13019130,0.09852074,-0.00004503,0.00003564,0.00008880,0.00003319,-0.
 00000100,-0.00001655,-0.00000980,0.00000613,0.00000207,0.00000367,-0.0
 0001628,0.00000104,0.00000725,-0.00001828,0.00001243,0.00000227,-0.000
 02346,0.00001965,-0.00007000,-0.00012438,0.00010496,-0.00003879,0.0000
 0133,0.00004516,0.00003884,0.00015536,-0.00002364,0.00061127,-0.000789
 34,-0.00050331,0.00039172,0.00055736,-0.00002368,0.00011192,-0.0005016
 3,-0.00065505,0.17172081,-0.00056851,0.00167179,0.00028193,-0.00075205
 ,-0.00077012,-0.00049857,-0.00017891,0.00031626,0.00031141,0.00011108,
 0.00007908,-0.00001947,0.00011851,-0.00010113,-0.00002299,-0.00009430,
 0.00003381,0.00001309,-0.00005655,0.00005965,0.00001931,-0.00001608,-0
 .00002778,-0.00001702,0.00011183,-0.00008561,-0.00006154,0.00011259,-0
 .00032506,-0.00003491,-0.00059137,-0.00087985,0.00071276,0.00023968,0.
 00038529,0.00025436,-0.00035120,0.00000839,-0.00015663,-0.00337402,-0.
 00453500,0.00310089,0.01818434,-0.01910345,-0.01624373,0.13168051,-0.2
 1430610,-0.11767467,-0.00007618,-0.00004062,0.00004832,0.00002172,-0.0
 0000856,-0.00000833,0.00001677,-0.00000559,-0.00000271,0.00000562,0.00
 000283,-0.00000032,-0.00001169,-0.00000330,0.00000916,0.00001366,-0.00
 000883,-0.00005075,-0.00013349,-0.00005741,0.00009366,0.00002126,0.000
 07156,-0.00001146,-0.00018015,0.00000248,0.00000944,0.00104395,-0.0008
 1612,-0.00103896,0.00071547,0.00096989,0.00057320,-0.00029984,0.001218
 07,-0.00071520,-0.13917770,0.22449157,-0.00197805,0.00184727,-0.000007
 80,0.00003986,-0.00072769,-0.00078827,-0.00028362,0.00018455,0.0003622
 9,0.00014978,0.00007980,0.00000057,0.00014871,-0.00009067,-0.00000837,
 -0.00011750,0.00003397,0.00000376,-0.00007707,0.00004985,0.00000901,-0
 .00004056,-0.00000433,-0.00002947,-0.00008743,0.00016993,0.00009556,-0
 .00026429,0.00019858,0.00001860,0.00056255,0.00111176,-0.00076174,-0.0
 0009825,-0.00004155,-0.00022779,0.00022232,-0.00009510,0.00009009,0.00
 039460,0.00114874,-0.00010624,-0.00579122,0.00417878,0.00450198,0.0992
 6125,-0.11746941,-0.15361270,0.00003503,-0.00004659,0.00000094,0.00001
 645,-0.00001266,-0.00000380,0.00001755,-0.00000699,0.00000508,0.000006
 36,-0.00000356,-0.00000477,-0.00001005,-0.00001454,0.00002125,0.000008
 86,-0.00001494,0.00001259,0.00009588,0.00005703,-0.00003429,-0.0000057
 2,-0.00000625,0.00004411,-0.00000709,0.00020467,0.00005715,-0.00009573
 ,0.00032115,0.00031744,-0.00043709,0.00085167,0.00010504,-0.00009679,-
 0.00037737,0.00004617,-0.10899675,0.12489483,0.15170699,-0.01140298,-0
 .01775477,-0.00802462,0.01229921,0.01716794,0.01474249,0.00060557,-0.0
 0702415,-0.00696482,-0.00231688,-0.00027940,0.00046181,-0.00121234,0.0
 0079817,-0.00002742,0.00086756,-0.00027974,-0.00012865,0.00069108,-0.0
 0053746,-0.00013869,0.00068272,-0.00031748,0.00025409,-0.00063155,-0.0
 0001537,0.00017094,0.00076152,-0.00123222,-0.00051974,-0.00251963,-0.0
 0064278,0.00233285,0.00190574,0.00001669,0.00099343,-0.00181330,0.0008
 7818,-0.00074663,-0.00037448,-0.00096553,-0.00157074,-0.01196219,-0.01
 444079,-0.00235536,-0.30127814,-0.00678384,-0.08429999,0.00088409,0.00
 046732,-0.00057917,-0.00023200,0.00016282,0.00013655,-0.00012036,0.000
 04911,0.00003797,-0.00006476,0.00004065,-0.00000086,0.00001030,0.00028
 854,-0.00023716,0.00012754,-0.00002030,0.00005004,0.00006368,-0.000157
 71,0.00012794,-0.00015619,-0.00011824,0.00022945,-0.00076838,0.0000205
 5,0.00002871,-0.00125796,0.00039180,0.00031198,0.00063679,0.00160480,-
 0.00002120,0.00093826,0.00041842,0.00047108,-0.00847708,0.00003055,-0.
 00312345,0.31667353,-0.00243010,0.00978085,0.00638558,-0.00299895,-0.0
 1757849,-0.01301045,-0.00159092,0.00466602,0.00496849,0.00201036,0.000
 32691,-0.00039271,0.00096891,-0.00044776,0.00016760,-0.00072907,0.0001
 7913,0.00009214,-0.00061252,0.00027407,0.00007366,-0.00064428,0.000309
 21,-0.00015363,-0.00000403,-0.00036185,-0.00027434,0.00005072,0.000038
 82,0.00042889,0.00106036,0.00056107,-0.00065873,-0.00104234,-0.0002547
 3,-0.00105177,0.00024399,0.00025014,0.00042205,0.00040297,0.00125230,-
 0.00040852,-0.03624815,-0.00323186,-0.01136079,-0.01362018,-0.05558060
 ,-0.00917544,-0.00050538,-0.00017830,0.00012136,0.00028187,-0.00010460
 ,-0.00010060,0.00008842,-0.00002470,-0.00003913,0.00007199,-0.00009040
 ,0.00000429,0.00000996,-0.00024788,0.00020267,-0.00006578,-0.00003181,
 -0.00023716,-0.00013238,-0.00043698,0.00036519,-0.00006352,0.00013570,
 -0.00000159,0.00039070,0.00017585,0.00015354,0.00058490,0.00022115,0.0
 0028594,0.00002817,0.00082659,0.00035449,-0.00112835,-0.00730123,0.001
 86956,0.02224178,0.00147952,0.01096050,0.02568244,0.06509412,-0.001542
 32,-0.00017821,-0.00720854,0.00355212,-0.00180739,-0.00030252,-0.00058
 831,-0.00106012,-0.00023486,-0.00025538,0.00012208,0.00027961,0.000152
 66,-0.00026749,-0.00016441,-0.00010598,0.00007664,-0.00000783,0.000032
 22,0.00014783,0.00003459,0.00009676,-0.00019590,-0.00008587,0.00024452
 ,0.00028865,0.00011200,-0.00001150,-0.00079171,-0.00044654,-0.00063957
 ,-0.00051137,0.00099113,0.00141129,0.00086493,0.00088846,-0.00021025,-
 0.00019057,-0.00042877,-0.00112633,-0.00058752,-0.00072305,0.00626509,
 0.00022345,0.00372790,-0.08888806,-0.00639366,-0.09787996,0.00024431,-
 0.00029194,0.00005330,-0.00003880,-0.00000974,-0.00000722,0.00002501,-
 0.00001645,0.00002712,-0.00001979,0.00006388,-0.00001326,-0.00005245,0
 .00005118,-0.00000181,-0.00001263,0.00005569,0.00007027,0.00000147,0.0
 0013348,-0.00008269,0.00009787,0.00004023,0.00014685,-0.00014558,-0.00
 027673,-0.00011776,0.00009119,0.00013382,0.00008238,0.00130695,0.00077
 385,-0.00007697,0.00038525,0.00176475,0.00006957,0.02255805,0.00387027
 ,0.00903764,0.09349600,0.00533946,0.10415436,-0.00189267,0.00045752,0.
 00226602,0.00104241,0.00067095,-0.00116200,-0.00075994,0.00016057,0.00
 085013,0.00069993,-0.00014295,-0.00033335,-0.00029742,0.00060363,0.000
 38361,0.00013788,-0.00015451,-0.00000492,-0.00005429,-0.00044004,-0.00
 013177,-0.00043074,0.00047464,0.00021753,0.00117012,0.00036254,0.00054
 892,-0.00192971,0.00364061,0.00200857,0.00060251,0.00229409,-0.0042750
 8,-0.00650175,-0.00187571,-0.00163817,0.00261849,-0.00198511,0.0005146
 2,0.00052378,0.00091805,-0.00097247,-0.00122323,-0.00332062,0.01046402
 ,-0.06146072,0.00309574,0.00598803,0.00004851,0.00006079,-0.00006270,-
 0.00002169,0.00002747,-0.00005725,-0.00006016,0.00004432,-0.00003241,0
 .00004765,-0.00015203,-0.00000387,0.00007469,-0.00012637,0.00008165,0.
 00017325,-0.00020157,-0.00053255,0.00026889,0.00014149,-0.00034660,-0.
 00027607,-0.00032889,0.00000134,0.00025406,0.00000099,-0.00008265,-0.0
 0036213,0.00026648,0.00020217,-0.00024669,-0.00130891,-0.00018047,-0.0
 0038193,0.00010382,0.00078291,0.00006953,-0.00656549,0.02055145,0.0074
 4062,0.00769842,-0.03632379,0.06072684,-0.00115019,0.00108754,0.000713
 10,0.00223790,-0.00170919,-0.00139460,-0.00100400,0.00044346,0.0009507
 6,0.00084707,-0.00001924,-0.00024626,0.00012026,0.00015078,0.00020463,
 -0.00015840,-0.00001814,0.00002956,-0.00019135,-0.00015424,-0.00003929
 ,-0.00022402,0.00026793,0.00028467,0.00231327,-0.00057915,0.00035258,0
 .00161235,0.00212568,0.00058602,0.00123533,-0.00242745,-0.00488686,-0.
 00418659,-0.00150012,-0.00048470,0.00147454,-0.00182378,-0.00017628,0.
 00060989,0.00129429,0.00008728,0.00102318,-0.00533220,0.02942158,0.002
 12686,-0.08610094,0.06749637,0.00004291,-0.00012117,-0.00008161,-0.000
 00364,-0.00001483,-0.00003366,0.00000042,0.00001327,-0.00002770,0.0000
 2716,-0.00007118,0.00000028,0.00004638,-0.00014023,0.00009897,0.000068
 85,-0.00012429,-0.00085323,-0.00001095,0.00009930,-0.00012211,0.000118
 14,-0.00013914,-0.00014554,-0.00005322,-0.00053620,-0.00064226,-0.0003
 2859,0.00038753,-0.00012981,-0.00228830,-0.00502124,0.00002511,-0.0001
 0099,0.00127385,-0.00022709,-0.00233617,0.01028434,-0.02738142,0.00255
 181,0.00029975,-0.00137142,-0.00441993,0.08810505,0.00261160,-0.003564
 75,-0.00201893,-0.00228448,0.00279796,0.00387862,0.00196210,-0.0008456
 8,-0.00244184,-0.00144253,-0.00001060,0.00052045,0.00007900,-0.0005660
 2,-0.00045649,0.00009403,0.00011968,-0.00005728,0.00025882,0.00046565,
 0.00009509,0.00050816,-0.00077894,-0.00009186,-0.00207416,-0.00057449,
 -0.00075152,0.00273592,-0.00483927,-0.00363864,-0.00527048,-0.00789570
 ,0.00309024,0.00511450,0.00469877,0.00393837,-0.00630669,0.00233035,-0
 .00125416,-0.00027713,0.00039894,0.00204411,0.00247994,0.00783824,0.00
 710555,0.00795863,0.05944507,-0.31504424,-0.00000670,0.00003539,0.0002
 3616,0.00000513,-0.00000166,0.00008986,0.00004966,-0.00004862,0.000068
 94,-0.00003731,0.00018191,-0.00000813,-0.00011737,0.00030619,-0.000194
 96,0.00014736,0.00010082,0.00064273,-0.00053780,-0.00070605,0.00071458
 ,-0.00000901,0.00072634,-0.00004185,-0.00013559,-0.00026609,-0.0005314
 5,0.00030901,-0.00041111,-0.00058360,-0.00075186,-0.00321491,0.0014665
 4,-0.00007737,-0.00074843,0.00027400,-0.00115765,0.00236465,-0.0108510
 3,-0.00510684,0.00466945,-0.01189312,0.00127908,-0.06200709,0.32569386
 \\-0.00000696,0.00000223,0.00000650,-0.00000398,0.00000837,0.00000472,
 0.00000759,-0.00000950,-0.00000800,0.00001203,-0.00000071,-0.00001073,
 0.00000915,0.00000048,0.00000078,-0.00000402,0.00000562,0.00000157,-0.
 00000447,-0.00000469,0.00000026,0.00000358,0.00001242,0.00001048,-0.00
 000226,-0.00000435,0.00001057,-0.00001066,-0.00000209,-0.00000783,-0.0
 0000372,-0.00000015,-0.00000629,0.00001115,0.00000755,-0.00000065,0.00
 000128,0.00000196,-0.00000234,0.00000422,0.00000382,0.00001062,-0.0000
 0853,-0.00000196,0.00000038,-0.00001453,-0.00000551,0.00001157,-0.0000
 1040,-0.00000957,-0.00000599,0.00000403,-0.00000022,-0.00000054,0.0000
 0472,-0.00000465,-0.00000199,0.00000040,-0.00000309,-0.00000098,0.0000
 0248,0.00000089,-0.00000479,0.00000005,0.00000068,0.00000427,0.0000008
 4,0.00000178,0.00000060,0.00000067,-0.00000016,0.00000127,0.00000142,-
 0.00000148,-0.00000473,-0.00000106,-0.00000130,-0.00000205,0.00000170,
 0.00000186,0.00000044,-0.00000053,0.00000093,-0.00000022,-0.00000263,0
 .00000186,0.00000031,0.00000976,-0.00000260,0.00000313,-0.00000133,0.0
 0000160,-0.00001034\\\@


 READER, WHETHER YOU BE DILETTANTE OR PROFESSOR ... SHOW YOURSELF TO BE
 MORE HUMAN THAN CRITICAL, AND THEN YOUR PLEASURE WILL INCREASE.
                                           -- DOMENICO SCARLATTI (1738)
 Job cpu time:       0 days  1 hours 17 minutes 56.8 seconds.
 File lengths (MBytes):  RWF=    277 Int=      0 D2E=      0 Chk=      8 Scr=      1
 Normal termination of Gaussian 09 at Wed Jul 28 23:04:07 2021.
